/*--------------------------------*- C++ -*----------------------------------*\
  =========                 |
  \\      /  F ield         | OpenFOAM: The Open Source CFD Toolbox
   \\    /   O peration     | Website:  https://openfoam.org
    \\  /    A nd           | Version:  7
     \\/     M anipulation  |
\*---------------------------------------------------------------------------*/
FoamFile
{
    version     2.0;
    format      ascii;
    class       volVectorField;
    location    "0";
    object      cellCenters;
}
// * * * * * * * * * * * * * * * * * * * * * * * * * * * * * * * * * * * * * //

dimensions      [0 1 0 0 0 0 0];

internalField   nonuniform List<vector> 
25860
(
(14.00556 4.19413 2.088239)
(29.99814 4.191209 2.072002)
(45.99617 4.191024 2.067515)
(61.99954 4.195405 2.0433)
(78.06094 4.148768 1.893639)
(94.24388 4.166325 1.86844)
(109.0967 4.142239 2.478212)
(398.02 4.150726 2.017662)
(414.0194 4.146436 1.8989)
(429.98 4.192252 1.981981)
(446.0015 4.191598 2.062088)
(462.0008 4.190953 2.07003)
(478.0004 4.191941 2.076078)
(14.00237 20.80561 1.941499)
(29.99498 20.80085 1.926239)
(45.99772 20.80664 1.918597)
(61.99999 20.81962 1.910516)
(78.01664 20.82603 1.862836)
(94.20398 20.83152 1.860751)
(109.0385 20.83472 2.467847)
(398.0645 20.83451 2.040203)
(413.9976 20.83072 1.896961)
(429.9925 20.82119 1.883555)
(445.9981 20.81536 1.918994)
(462.0045 20.80025 1.920579)
(478.0026 20.80303 1.931149)
(13.99946 37.46841 1.899363)
(29.98387 37.46723 1.871593)
(45.99593 37.47753 1.860111)
(61.99878 37.49369 1.899595)
(78.02193 37.49983 1.86293)
(94.20148 37.49833 1.864852)
(109.0377 37.50052 2.469142)
(398.0691 37.50019 2.042676)
(414.0122 37.50144 1.899293)
(429.9953 37.49446 1.880099)
(445.9957 37.48854 1.889908)
(462.0201 37.47099 1.854381)
(478.0097 37.46723 1.884132)
(13.99712 54.14232 1.881037)
(29.97563 54.14527 1.848516)
(45.99118 54.15443 1.840969)
(61.99806 54.16465 1.900759)
(78.02613 54.16556 1.865536)
(94.20188 54.16639 1.86765)
(109.0375 54.16671 2.469468)
(398.0702 54.16666 2.043265)
(414.0208 54.16608 1.902036)
(429.997 54.16517 1.883049)
(445.9956 54.16137 1.884345)
(462.0302 54.14984 1.829545)
(478.0161 54.14356 1.86282)
(13.99614 70.81813 1.871354)
(29.97214 70.82132 1.839461)
(45.98947 70.82715 1.83616)
(61.99775 70.83266 1.901585)
(78.02589 70.83291 1.866302)
(94.20194 70.83332 1.867943)
(109.0375 70.83333 2.469486)
(398.0703 70.83334 2.043312)
(414.0212 70.83321 1.902686)
(429.9974 70.83275 1.883736)
(445.9956 70.83091 1.883412)
(462.0338 70.82444 1.822095)
(478.0193 70.8198 1.852911)
(13.99596 87.49128 1.866786)
(29.97098 87.49341 1.836021)
(45.989 87.49682 1.834611)
(61.99764 87.49971 1.901935)
(78.02583 87.49966 1.866412)
(94.20198 87.50003 1.867964)
(109.0375 87.50001 2.46948)
(398.0703 87.50001 2.043308)
(414.0213 87.49992 1.90275)
(429.9974 87.49958 1.883919)
(445.9954 87.4988 1.883189)
(462.035 87.49529 1.819496)
(478.0203 87.49244 1.848807)
(13.99592 104.1617 1.864675)
(29.9706 104.163 1.834491)
(45.98891 104.165 1.833976)
(61.9976 104.1665 1.902087)
(78.02581 104.1663 1.866445)
(94.20198 104.1667 1.867968)
(109.0375 104.1667 2.469479)
(398.0703 104.1667 2.043308)
(414.0213 104.1666 1.902766)
(429.9975 104.1663 1.88399)
(445.9952 104.166 1.883102)
(462.0354 104.1641 1.818388)
(478.0207 104.1624 1.846953)
(13.99593 120.8305 1.86364)
(29.97047 120.8313 1.833754)
(45.98892 120.8324 1.833679)
(61.99758 120.8332 1.902159)
(78.0258 120.833 1.86646)
(94.20198 120.8334 1.86797)
(109.0375 120.8334 2.469479)
(398.0703 120.8334 2.043309)
(414.0213 120.8333 1.902772)
(429.9975 120.833 1.884021)
(445.9952 120.833 1.883065)
(462.0356 120.8319 1.817863)
(478.0209 120.8309 1.846052)
(13.99594 137.4984 1.863125)
(29.97043 137.4989 1.83339)
(45.98893 137.4995 1.833534)
(61.99758 137.4999 1.902194)
(78.0258 137.4997 1.866466)
(94.20197 137.5 1.86797)
(109.0375 137.5 2.469479)
(398.0703 137.5 2.043309)
(414.0213 137.4999 1.902776)
(429.9975 137.4996 1.884036)
(445.9951 137.4998 1.883045)
(462.0356 137.4992 1.817606)
(478.0209 137.4987 1.845608)
(13.99595 154.1657 1.862867)
(29.97043 154.166 1.83321)
(45.98895 154.1663 1.833461)
(61.99757 154.1666 1.902213)
(78.0258 154.1663 1.866469)
(94.20197 154.1667 1.867971)
(109.0375 154.1667 2.469479)
(398.0703 154.1667 2.043309)
(414.0213 154.1666 1.902777)
(429.9975 154.1663 1.884044)
(445.9951 154.1666 1.883036)
(462.0357 154.1662 1.817481)
(478.0209 154.1659 1.845386)
(13.99595 170.8328 1.862739)
(29.97042 170.833 1.83312)
(45.98895 170.8331 1.833426)
(61.99757 170.8333 1.90222)
(78.0258 170.833 1.866471)
(94.20197 170.8334 1.867971)
(109.0375 170.8334 2.469479)
(398.0703 170.8334 2.043309)
(414.0213 170.8333 1.902778)
(429.9975 170.833 1.884047)
(445.9951 170.8332 1.88303)
(462.0357 170.833 1.817416)
(478.0209 170.8329 1.84528)
(13.99595 187.4996 1.862675)
(29.97042 187.4997 1.833078)
(45.98895 187.4998 1.833409)
(61.99757 187.4999 1.902224)
(78.0258 187.4997 1.866472)
(94.20197 187.5 1.867971)
(109.0375 187.5 2.469479)
(398.0703 187.5 2.043309)
(414.0213 187.4999 1.902778)
(429.9975 187.4996 1.884049)
(445.9951 187.4999 1.883029)
(462.0357 187.4998 1.817387)
(478.0209 187.4997 1.845224)
(13.99595 204.1664 1.862644)
(29.97042 204.1665 1.833054)
(45.98895 204.1665 1.833401)
(61.99757 204.1666 1.902228)
(78.0258 204.1663 1.866472)
(94.20197 204.1667 1.867971)
(109.0375 204.1667 2.469479)
(398.0703 204.1667 2.043309)
(414.0213 204.1666 1.902778)
(429.9975 204.1663 1.88405)
(445.9951 204.1666 1.883029)
(462.0357 204.1665 1.817372)
(478.0209 204.1665 1.845199)
(13.99595 220.8332 1.862629)
(29.97042 220.8332 1.833044)
(45.98895 220.8332 1.833397)
(61.99757 220.8333 1.902227)
(78.0258 220.833 1.866472)
(94.20197 220.8334 1.867971)
(109.0375 220.8334 2.469479)
(398.0703 220.8334 2.043309)
(414.0213 220.8333 1.902778)
(429.9975 220.833 1.88405)
(445.9951 220.8333 1.883027)
(462.0357 220.8332 1.817366)
(478.0209 220.8332 1.845187)
(13.99595 237.4999 1.862621)
(29.97042 237.4999 1.833039)
(45.98896 237.4999 1.833394)
(61.99756 237.4999 1.902227)
(78.0258 237.4997 1.866472)
(94.20197 237.5 1.867971)
(109.0375 237.5 2.469479)
(398.0703 237.5 2.043309)
(414.0213 237.4999 1.902778)
(429.9975 237.4996 1.884049)
(445.9951 237.4999 1.883027)
(462.0357 237.4999 1.817363)
(478.0209 237.4999 1.845181)
(13.99595 254.1666 1.862615)
(29.97042 254.1666 1.833035)
(45.98896 254.1666 1.833392)
(61.99757 254.1666 1.902229)
(78.0258 254.1663 1.866472)
(94.20197 254.1667 1.867971)
(109.0375 254.1667 2.469479)
(398.0703 254.1667 2.043309)
(414.0213 254.1666 1.902778)
(429.9975 254.1663 1.884051)
(445.9951 254.1666 1.883027)
(462.0357 254.1666 1.817364)
(478.0209 254.1666 1.845183)
(13.99595 270.8333 1.862611)
(29.97042 270.8333 1.833033)
(45.98896 270.8333 1.833393)
(61.99757 270.8333 1.902228)
(78.0258 270.833 1.866473)
(94.20197 270.8334 1.867971)
(109.0375 270.8334 2.469479)
(398.0703 270.8334 2.043309)
(414.0213 270.8333 1.902778)
(429.9975 270.833 1.88405)
(445.9951 270.8333 1.883027)
(462.0357 270.8333 1.817366)
(478.0209 270.8333 1.845184)
(13.99596 287.5 1.862605)
(29.97043 287.4999 1.833029)
(45.98897 287.4999 1.83339)
(61.99757 287.4999 1.902229)
(78.0258 287.4997 1.866473)
(94.20197 287.5 1.867971)
(109.0375 287.5 2.469479)
(398.0703 287.5 2.043309)
(414.0213 287.4999 1.902778)
(429.9975 287.4996 1.884049)
(445.9951 287.4999 1.883028)
(462.0357 287.5 1.817367)
(478.0209 287.5 1.845189)
(13.99596 304.1666 1.862599)
(29.97043 304.1666 1.833024)
(45.98897 304.1666 1.833388)
(61.99757 304.1666 1.902229)
(78.0258 304.1663 1.866473)
(94.20197 304.1667 1.867971)
(109.0375 304.1667 2.469479)
(398.0703 304.1667 2.043309)
(414.0213 304.1666 1.902778)
(429.9975 304.1663 1.884049)
(445.9951 304.1666 1.883028)
(462.0357 304.1666 1.817374)
(478.0209 304.1667 1.845202)
(13.99596 320.8333 1.862595)
(29.97044 320.8333 1.833019)
(45.98897 320.8333 1.833385)
(61.99757 320.8333 1.902229)
(78.0258 320.833 1.866473)
(94.20197 320.8334 1.867971)
(109.0375 320.8334 2.469479)
(398.0703 320.8334 2.043309)
(414.0213 320.8333 1.902778)
(429.9975 320.833 1.884048)
(445.9951 320.8333 1.883029)
(462.0357 320.8334 1.817389)
(478.0209 320.8335 1.845232)
(13.99596 337.5001 1.862593)
(29.97045 337.5 1.833017)
(45.989 337.4999 1.833382)
(61.99757 337.4999 1.902226)
(78.0258 337.4997 1.866473)
(94.20197 337.5 1.867971)
(109.0375 337.5 2.469479)
(398.0703 337.5 2.043309)
(414.0213 337.4999 1.902777)
(429.9975 337.4996 1.884045)
(445.9951 337.5 1.883031)
(462.0357 337.5001 1.817427)
(478.0209 337.5003 1.845294)
(13.99596 354.1669 1.862605)
(29.97048 354.1668 1.833022)
(45.98901 354.1666 1.833383)
(61.99757 354.1666 1.902225)
(78.0258 354.1663 1.866473)
(94.20197 354.1667 1.867971)
(109.0375 354.1667 2.469479)
(398.0703 354.1667 2.043309)
(414.0213 354.1666 1.902776)
(429.9975 354.1663 1.884041)
(445.9951 354.1667 1.883035)
(462.0356 354.1669 1.817501)
(478.0209 354.1673 1.845423)
(13.99598 370.8338 1.862646)
(29.97054 370.8336 1.833052)
(45.98903 370.8334 1.833391)
(61.99758 370.8333 1.902217)
(78.0258 370.833 1.866472)
(94.20197 370.8334 1.867971)
(109.0375 370.8334 2.469479)
(398.0703 370.8334 2.043309)
(414.0213 370.8333 1.902773)
(429.9975 370.833 1.884031)
(445.9951 370.8334 1.883047)
(462.0356 370.834 1.817653)
(478.0209 370.8345 1.845685)
(13.996 387.5008 1.862748)
(29.97066 387.5006 1.833127)
(45.98911 387.5002 1.833416)
(61.99759 387.4999 1.902198)
(78.0258 387.4997 1.866469)
(94.20197 387.5 1.86797)
(109.0375 387.5 2.469479)
(398.0703 387.5 2.043308)
(414.0213 387.4999 1.902769)
(429.9975 387.4996 1.88401)
(445.9952 387.5002 1.883067)
(462.0355 387.5012 1.817967)
(478.0208 387.5021 1.846213)
(13.99609 404.168 1.862982)
(29.97094 404.1677 1.83331)
(45.98927 404.1672 1.833484)
(61.99761 404.1666 1.902158)
(78.02581 404.1663 1.86646)
(94.20197 404.1667 1.867968)
(109.0375 404.1667 2.46948)
(398.0703 404.1667 2.043307)
(414.0213 404.1666 1.902757)
(429.9975 404.1663 1.883965)
(445.9953 404.1672 1.883114)
(462.0352 404.1692 1.818632)
(478.0206 404.1705 1.847296)
(13.99627 420.8356 1.863473)
(29.97161 420.8353 1.833732)
(45.98968 420.8345 1.833661)
(61.99766 420.8334 1.902061)
(78.02583 420.833 1.866427)
(94.20196 420.8334 1.867961)
(109.0375 420.8334 2.469482)
(398.0703 420.8334 2.043309)
(414.0212 420.8333 1.902728)
(429.9974 420.8331 1.883854)
(445.9954 420.8346 1.883237)
(462.0345 420.8382 1.820144)
(478.0199 420.8403 1.849593)
(13.9967 437.5034 1.864478)
(29.97322 437.5035 1.83474)
(45.99079 437.5025 1.834182)
(61.99785 437.5005 1.90181)
(78.02594 437.4999 1.866207)
(94.2019 437.5001 1.867883)
(109.0375 437.5 2.469485)
(398.0703 437.5 2.043305)
(414.0211 437.5001 1.902542)
(429.9973 437.5001 1.883523)
(445.9955 437.503 1.883671)
(462.0322 437.5096 1.824197)
(478.0178 437.5121 1.854851)
(13.99765 454.1714 1.866484)
(29.97682 454.1723 1.837341)
(45.99362 454.1716 1.836106)
(61.99841 454.1689 1.901127)
(78.02603 454.168 1.863982)
(94.20173 454.1676 1.866744)
(109.0375 454.1665 2.46938)
(398.0699 454.1667 2.043098)
(414.0195 454.1679 1.900375)
(429.9964 454.169 1.881917)
(445.9954 454.1737 1.88595)
(462.0257 454.1854 1.837205)
(478.0127 454.1855 1.866837)
(13.99916 470.8381 1.869968)
(29.98341 470.8401 1.843595)
(46.00004 470.8407 1.843765)
(62 470.84 1.9016)
(78.01859 470.8403 1.861447)
(94.202 470.8354 1.862446)
(109.038 470.8323 2.468616)
(398.0676 470.833 2.041777)
(414.0044 470.8388 1.897489)
(429.9938 470.8417 1.879069)
(445.9963 470.8492 1.897761)
(462.0124 470.8655 1.876263)
(478.0027 470.8589 1.89235)
(14.00058 487.5032 1.875974)
(29.99098 487.5045 1.85609)
(46.00722 487.5026 1.872838)
(62.00143 487.4909 1.941189)
(78.01965 487.5036 1.875713)
(94.21192 487.4989 1.861796)
(109.0467 487.5035 2.468773)
(398.0532 487.4989 2.038539)
(413.9924 487.5021 1.903718)
(429.9864 487.4966 1.913424)
(446.0002 487.4967 1.970555)
(461.9995 487.4964 1.975702)
(477.9945 487.5005 1.950816)
(18.00029 8.347507 5.739719)
(33.99757 8.34556 5.724123)
(50.002 8.344559 5.699885)
(66.05741 8.34357 5.68313)
(82.00585 8.335903 5.687078)
(97.98484 8.335093 5.723685)
(110.0123 4.17625 4.967888)
(124.4993 4.150898 4.853236)
(381.5287 4.110522 4.667937)
(402.0069 8.33042 5.710878)
(417.9893 8.335455 5.681476)
(433.9407 8.343909 5.680883)
(449.9972 8.344771 5.698852)
(466.0021 8.345628 5.723641)
(481.9996 8.347538 5.739442)
(18.00041 24.99904 5.655568)
(33.99845 25.00404 5.62826)
(49.98748 24.99849 5.61632)
(66.05719 24.99282 5.640411)
(81.99883 24.99657 5.676088)
(97.98577 24.99834 5.725324)
(110.0251 20.83455 4.96515)
(124.4258 20.83576 4.839987)
(381.6573 20.83643 4.77182)
(402.0097 24.99896 5.722492)
(417.999 24.99699 5.674059)
(433.9415 24.99324 5.639174)
(450.0118 24.99893 5.615608)
(466.0011 25.00442 5.627851)
(481.9995 24.99927 5.65529)
(18.00083 41.65245 5.588178)
(33.99849 41.655 5.547135)
(49.96806 41.65721 5.55857)
(66.0622 41.65996 5.625475)
(81.99735 41.6633 5.675692)
(97.98634 41.66565 5.728418)
(110.0267 37.5004 4.96931)
(124.4256 37.50031 4.842541)
(381.667 37.50053 4.776456)
(402.0119 41.66593 5.727694)
(418.0016 41.66357 5.674958)
(433.937 41.66028 5.624885)
(450.0313 41.65783 5.558141)
(466.0011 41.65568 5.546815)
(481.999 41.65289 5.587916)
(17.99984 58.32037 5.55413)
(33.99546 58.32275 5.511632)
(49.96132 58.32657 5.5381)
(66.06493 58.3303 5.622832)
(81.9972 58.3323 5.677183)
(97.98672 58.3331 5.729897)
(110.0268 54.16693 4.970632)
(124.4252 54.16663 4.842772)
(381.6696 54.16674 4.777243)
(402.0127 58.33323 5.729664)
(418.0023 58.33241 5.676897)
(433.9346 58.33048 5.622556)
(450.0383 58.32702 5.53785)
(466.0042 58.32332 5.511409)
(482.0001 58.32083 5.553932)
(17.99912 74.99119 5.536923)
(33.99374 74.99324 5.497462)
(49.95956 74.99623 5.531619)
(66.06627 74.99876 5.62242)
(81.99718 74.99977 5.677715)
(97.98672 74.99997 5.730271)
(110.0268 70.83357 4.970839)
(124.4251 70.83332 4.84273)
(381.6701 70.83336 4.777293)
(402.0131 75.00002 5.730183)
(418.0026 74.99982 5.677593)
(433.9335 74.99885 5.622291)
(450.0402 74.99649 5.531476)
(466.0061 74.9936 5.497316)
(482.0008 74.99155 5.536788)
(17.99885 91.66127 5.528817)
(33.99307 91.66269 5.491558)
(49.95908 91.66463 5.529172)
(66.06692 91.66611 5.622351)
(81.99715 91.66661 5.677886)
(97.98668 91.66666 5.730353)
(110.0268 87.50023 4.970854)
(124.4251 87.5 4.842716)
(381.6702 87.50004 4.777288)
(402.0132 91.66668 5.730315)
(418.0027 91.66663 5.677833)
(433.933 91.66616 5.622288)
(450.0408 91.66476 5.529095)
(466.0068 91.6629 5.49147)
(482.0011 91.6615 5.528729)
(17.99875 108.3301 5.524932)
(33.99282 108.331 5.488813)
(49.95894 108.3322 5.528082)
(66.06723 108.3331 5.622338)
(81.99713 108.3333 5.677956)
(97.98666 108.3333 5.730375)
(110.0267 104.1669 4.970855)
(124.4251 104.1666 4.842714)
(381.6702 104.1667 4.777288)
(402.0133 108.3334 5.730358)
(418.0028 108.3333 5.677933)
(433.9327 108.3331 5.622308)
(450.041 108.3323 5.528042)
(466.0071 108.3312 5.488763)
(482.0012 108.3303 5.524879)
(17.99872 124.9981 5.522991)
(33.99272 124.9987 5.487457)
(49.95889 124.9994 5.527555)
(66.0674 124.9999 5.622335)
(81.99711 125 5.677991)
(97.98665 125 5.730384)
(110.0267 120.8336 4.970855)
(124.4251 120.8334 4.842714)
(381.6702 120.8334 4.777289)
(402.0134 125 5.730377)
(418.0029 125 5.67798)
(433.9326 124.9999 5.622323)
(450.0411 124.9994 5.527534)
(466.0072 124.9987 5.487431)
(482.0013 124.9982 5.522963)
(17.9987 141.6656 5.522009)
(33.99269 141.6659 5.486776)
(49.95887 141.6663 5.52729)
(66.06749 141.6666 5.622335)
(81.99711 141.6667 5.678006)
(97.98665 141.6667 5.730386)
(110.0267 137.5002 4.970854)
(124.4251 137.5 4.842714)
(381.6702 137.5 4.777289)
(402.0134 141.6667 5.730383)
(418.0029 141.6667 5.678001)
(433.9325 141.6666 5.622331)
(450.0411 141.6664 5.527284)
(466.0073 141.666 5.486764)
(482.0013 141.6656 5.521994)
(17.9987 158.3327 5.521512)
(33.99266 158.3329 5.486434)
(49.95887 158.3332 5.52716)
(66.06753 158.3333 5.622335)
(81.99711 158.3334 5.678014)
(97.98665 158.3333 5.730387)
(110.0267 154.1669 4.970853)
(124.4251 154.1667 4.842714)
(381.6702 154.1667 4.777288)
(402.0134 158.3334 5.730385)
(418.0029 158.3334 5.678012)
(433.9324 158.3333 5.622336)
(450.0411 158.3332 5.52716)
(466.0073 158.3329 5.486432)
(482.0013 158.3328 5.521509)
(17.99869 174.9996 5.521266)
(33.99265 174.9998 5.486265)
(49.95886 174.9999 5.527097)
(66.06754 175 5.622337)
(81.99711 175 5.678018)
(97.98665 175 5.730386)
(110.0267 170.8336 4.970853)
(124.4251 170.8334 4.842714)
(381.6702 170.8334 4.777288)
(402.0134 175 5.730386)
(418.0029 175 5.678017)
(433.9324 175 5.622339)
(450.0411 174.9999 5.527101)
(466.0073 174.9998 5.486268)
(482.0013 174.9997 5.521266)
(17.9987 191.6665 5.521146)
(33.99265 191.6665 5.486183)
(49.95886 191.6666 5.527065)
(66.06756 191.6666 5.622336)
(81.99711 191.6667 5.678019)
(97.98665 191.6667 5.730386)
(110.0267 187.5002 4.970853)
(124.4251 187.5 4.842714)
(381.6702 187.5 4.777288)
(402.0134 191.6667 5.730386)
(418.0029 191.6667 5.678019)
(433.9324 191.6666 5.62234)
(450.0411 191.6666 5.527072)
(466.0074 191.6665 5.486188)
(482.0013 191.6665 5.52115)
(17.99869 208.3332 5.521084)
(33.99265 208.3332 5.486143)
(49.95886 208.3333 5.527051)
(66.06756 208.3333 5.622337)
(81.99711 208.3334 5.67802)
(97.98665 208.3333 5.730386)
(110.0267 204.1669 4.970853)
(124.4251 204.1667 4.842714)
(381.6702 204.1667 4.777288)
(402.0134 208.3333 5.730386)
(418.0029 208.3334 5.67802)
(433.9324 208.3333 5.62234)
(450.0411 208.3333 5.527059)
(466.0074 208.3332 5.48615)
(482.0013 208.3332 5.521093)
(17.9987 224.9999 5.521057)
(33.99265 224.9999 5.486124)
(49.95885 225 5.527045)
(66.06756 225 5.622337)
(81.99711 225 5.67802)
(97.98665 225 5.730386)
(110.0267 220.8336 4.970853)
(124.4251 220.8334 4.842714)
(381.6702 220.8334 4.777288)
(402.0134 225 5.730386)
(418.0029 225 5.67802)
(433.9324 225 5.622341)
(450.0411 225 5.527054)
(466.0074 224.9999 5.486134)
(482.0013 224.9999 5.521069)
(17.9987 241.6666 5.521041)
(33.99265 241.6666 5.486113)
(49.95886 241.6666 5.52704)
(66.06757 241.6666 5.622337)
(81.99711 241.6667 5.67802)
(97.98665 241.6667 5.730386)
(110.0267 237.5002 4.970853)
(124.4251 237.5 4.842714)
(381.6702 237.5 4.777288)
(402.0134 241.6666 5.730386)
(418.0029 241.6666 5.67802)
(433.9324 241.6666 5.622341)
(450.0411 241.6666 5.527052)
(466.0074 241.6666 5.486127)
(482.0013 241.6666 5.521058)
(17.9987 258.3333 5.521029)
(33.99265 258.3333 5.486105)
(49.95886 258.3333 5.527037)
(66.06757 258.3333 5.622337)
(81.99711 258.3334 5.678021)
(97.98665 258.3334 5.730386)
(110.0267 254.1669 4.970853)
(124.4251 254.1667 4.842714)
(381.6702 254.1667 4.777288)
(402.0134 258.3333 5.730386)
(418.0029 258.3333 5.67802)
(433.9324 258.3333 5.622341)
(450.0411 258.3333 5.52705)
(466.0074 258.3333 5.486125)
(482.0013 258.3333 5.521056)
(17.99869 275 5.521014)
(33.99265 275 5.486095)
(49.95886 275 5.527033)
(66.06757 275 5.622337)
(81.99711 275 5.678021)
(97.98665 275 5.730386)
(110.0267 270.8336 4.970853)
(124.4251 270.8334 4.842714)
(381.6702 270.8334 4.777288)
(402.0134 275 5.730386)
(418.0029 275 5.678019)
(433.9324 275 5.62234)
(450.0411 275 5.52705)
(466.0074 275.0001 5.486127)
(482.0013 275.0001 5.52106)
(17.9987 291.6667 5.521001)
(33.99266 291.6666 5.486083)
(49.95886 291.6666 5.527027)
(66.06757 291.6666 5.622337)
(81.9971 291.6667 5.678022)
(97.98665 291.6667 5.730387)
(110.0267 287.5002 4.970853)
(124.4251 287.5 4.842714)
(381.6702 287.5 4.777288)
(402.0134 291.6666 5.730386)
(418.0029 291.6666 5.678018)
(433.9324 291.6667 5.622338)
(450.0411 291.6667 5.527053)
(466.0074 291.6667 5.486136)
(482.0013 291.6668 5.521076)
(17.99871 308.3333 5.520982)
(33.99267 308.3333 5.486068)
(49.95887 308.3333 5.52702)
(66.06757 308.3333 5.622336)
(81.9971 308.3334 5.678023)
(97.98665 308.3333 5.730387)
(110.0267 304.1669 4.970853)
(124.4251 304.1667 4.842714)
(381.6702 304.1667 4.777288)
(402.0134 308.3333 5.730385)
(418.0029 308.3333 5.678017)
(433.9324 308.3334 5.622336)
(450.0411 308.3334 5.527059)
(466.0074 308.3334 5.486161)
(482.0013 308.3335 5.521113)
(17.99871 325.0001 5.520964)
(33.99268 325 5.486053)
(49.95888 325 5.527012)
(66.06758 325 5.622335)
(81.9971 325 5.678024)
(97.98665 325 5.730388)
(110.0267 320.8336 4.970854)
(124.4251 320.8334 4.842714)
(381.6702 320.8334 4.777288)
(402.0134 325 5.730384)
(418.0029 325 5.678013)
(433.9324 325 5.622332)
(450.0411 325.0001 5.527077)
(466.0073 325.0002 5.48622)
(482.0013 325.0002 5.521198)
(17.99874 341.6668 5.520957)
(33.9927 341.6668 5.486044)
(49.9589 341.6667 5.527003)
(66.06759 341.6667 5.622329)
(81.9971 341.6666 5.678023)
(97.98665 341.6666 5.730389)
(110.0267 337.5002 4.970853)
(124.4251 337.5 4.842714)
(381.6702 337.5 4.777288)
(402.0134 341.6666 5.730381)
(418.0029 341.6666 5.678005)
(433.9324 341.6667 5.622324)
(450.0411 341.6668 5.527118)
(466.0073 341.667 5.486343)
(482.0013 341.6671 5.521384)
(17.99875 358.3336 5.52098)
(33.99276 358.3335 5.486059)
(49.95893 358.3334 5.527003)
(66.06759 358.3333 5.622322)
(81.99711 358.3333 5.67802)
(97.98665 358.3333 5.730388)
(110.0267 354.1669 4.970854)
(124.4251 354.1667 4.842714)
(381.6702 354.1667 4.777288)
(402.0133 358.3333 5.730376)
(418.0029 358.3333 5.67799)
(433.9325 358.3334 5.62231)
(450.0411 358.3336 5.527208)
(466.0073 358.3338 5.4866)
(482.0013 358.334 5.521759)
(17.99879 375.0005 5.521079)
(33.99286 375.0004 5.486126)
(49.959 375.0002 5.527019)
(66.06758 375.0001 5.622307)
(81.99711 375 5.678011)
(97.98665 375 5.730385)
(110.0267 370.8336 4.970854)
(124.4251 370.8334 4.842714)
(381.6702 370.8334 4.777288)
(402.0133 375 5.730365)
(418.0029 375 5.677961)
(433.9325 375.0001 5.622287)
(450.0411 375.0004 5.527397)
(466.0072 375.0009 5.487121)
(482.0012 375.0012 5.522512)
(17.99889 391.6675 5.521339)
(33.99304 391.6673 5.486323)
(49.95911 391.667 5.527081)
(66.06757 391.6667 5.622271)
(81.99713 391.6666 5.677981)
(97.98666 391.6666 5.730372)
(110.0267 387.5002 4.970853)
(124.4251 387.5 4.842714)
(381.6702 387.5 4.777287)
(402.0133 391.6666 5.730341)
(418.0028 391.6666 5.677901)
(433.9326 391.6668 5.622242)
(450.041 391.6675 5.527786)
(466.0071 391.6683 5.488181)
(482.0012 391.6688 5.52401)
(17.99907 408.3347 5.521921)
(33.99344 408.3345 5.48679)
(49.95937 408.334 5.527247)
(66.06753 408.3335 5.622198)
(81.99716 408.3333 5.677909)
(97.98669 408.3333 5.730335)
(110.0267 404.1669 4.97085)
(124.4251 404.1667 4.842714)
(381.6702 404.1667 4.777286)
(402.0132 408.3333 5.730284)
(418.0027 408.3333 5.677775)
(433.9329 408.3337 5.622167)
(450.0407 408.3348 5.528615)
(466.0067 408.3361 5.490352)
(482.001 408.3369 5.526985)
(17.99948 425.0021 5.523155)
(33.99432 425.0019 5.487869)
(49.95994 425.0013 5.527682)
(66.06746 425.0005 5.622037)
(81.99722 425.0001 5.677697)
(97.98676 425 5.730215)
(110.0268 420.8336 4.970841)
(124.4251 420.8334 4.84272)
(381.6701 420.8334 4.777285)
(402.013 425 5.730129)
(418.0026 425.0001 5.677493)
(433.9333 425.001 5.622068)
(450.0401 425.0029 5.530566)
(466.0059 425.0047 5.4951)
(482.0007 425.0058 5.53307)
(18.00027 441.6696 5.525676)
(33.99619 441.6698 5.49043)
(49.96141 441.6692 5.528966)
(66.06737 441.6681 5.621722)
(81.99735 441.6674 5.676988)
(97.98683 441.6668 5.729741)
(110.0268 437.5002 4.970763)
(124.4251 437.5 4.842748)
(381.6699 437.5 4.777284)
(402.0126 441.6667 5.729577)
(418.0023 441.6675 5.676718)
(433.9343 441.6693 5.622119)
(450.0381 441.672 5.536069)
(466.0038 441.6742 5.506849)
(481.9998 441.6751 5.545838)
(18.00166 458.3368 5.530709)
(33.99977 458.3374 5.49692)
(49.96542 458.3377 5.533459)
(66.06741 458.3371 5.62186)
(81.99775 458.3362 5.67488)
(97.9866 458.3341 5.728017)
(110.0269 454.1668 4.970167)
(124.4253 454.1666 4.842743)
(381.6688 454.1665 4.777041)
(402.0118 458.334 5.727561)
(418.0015 458.3364 5.674655)
(433.9364 458.3394 5.624025)
(450.0309 458.3409 5.554749)
(466.0003 458.3411 5.53782)
(481.9988 458.3426 5.570268)
(18.00331 475.0024 5.538315)
(34.00407 475.0021 5.51081)
(49.97482 475.0034 5.548841)
(66.06673 475.0038 5.628697)
(81.99951 475.0028 5.673554)
(97.98622 475.0013 5.724428)
(110.0263 470.8332 4.96749)
(124.4259 470.8324 4.84182)
(381.6636 470.8321 4.774975)
(402.0096 475.0011 5.722309)
(417.9988 475.003 5.673574)
(433.9405 475.0065 5.637592)
(450.0109 474.9996 5.610416)
(465.9991 474.9917 5.614115)
(482.0027 475.0004 5.617232)
(18.00436 491.665 5.548157)
(34.0054 491.663 5.531187)
(49.9829 491.6607 5.581084)
(66.06589 491.6582 5.655814)
(82.00624 491.6637 5.681717)
(97.98543 491.6646 5.722133)
(110.0221 487.4972 4.963255)
(124.4345 487.4979 4.838818)
(381.641 487.4932 4.766151)
(402.0068 491.6696 5.710642)
(417.9891 491.6645 5.680781)
(433.9395 491.6559 5.678456)
(449.9964 491.6551 5.691133)
(466.0026 491.6571 5.700303)
(482.0089 491.6625 5.669309)
(18.00372 8.34002 9.105507)
(34.01191 8.340396 9.081875)
(50.02333 8.340744 9.045331)
(66.0187 8.335434 9.037962)
(82.04831 8.329183 9.052828)
(98.09471 8.330714 9.072082)
(114.1481 8.329202 9.027367)
(126.7902 4.143553 7.793707)
(366.1306 4.136162 8.088277)
(385.8281 8.315649 9.006817)
(401.8902 8.327926 9.058696)
(417.9447 8.328764 9.045087)
(433.9778 8.335573 9.034002)
(449.9748 8.340898 9.043192)
(465.9872 8.340488 9.080745)
(481.9961 8.340074 9.104804)
(18.0055 25.00755 9.049092)
(34.0152 25.01076 9.017728)
(50.01703 25.00625 8.985449)
(66.0089 24.99707 9.00281)
(82.04579 24.99442 9.039598)
(98.09671 24.99736 9.071766)
(114.139 24.99945 9.042272)
(126.7348 20.83238 7.780372)
(366.2116 20.83207 8.029725)
(385.8529 24.99885 9.038011)
(401.8961 24.99706 9.066679)
(417.95 24.99471 9.035706)
(433.9886 24.99754 9.000335)
(449.9814 25.00672 8.98387)
(465.984 25.01109 9.01677)
(481.9943 25.00776 9.048443)
(18.00745 41.6637 8.991693)
(34.01773 41.66506 8.952605)
(50.00663 41.66373 8.933349)
(66.00317 41.66175 8.979971)
(82.04484 41.66255 9.03281)
(98.09829 41.66498 9.072406)
(114.137 41.66688 9.049133)
(126.7286 37.49962 7.785743)
(366.2178 37.49967 8.026816)
(385.86 41.66707 9.048115)
(401.8986 41.66518 9.070624)
(417.953 41.6629 9.031066)
(433.9952 41.66222 8.978627)
(449.9923 41.66432 8.93233)
(465.9816 41.66552 8.951872)
(481.9923 41.66402 8.991144)
(18.00786 58.32769 8.956383)
(34.01707 58.32848 8.917032)
(50.00155 58.32908 8.909065)
(66.00153 58.32988 8.970843)
(82.04474 58.3311 9.030349)
(98.09934 58.3325 9.072798)
(114.1365 58.3335 9.051049)
(126.7269 54.16637 7.786642)
(366.2201 54.1665 8.025974)
(385.8625 58.33359 9.050731)
(401.8994 58.33268 9.072127)
(417.9542 58.33132 9.029576)
(433.9976 58.33019 8.970144)
(449.9977 58.32951 8.908461)
(465.9825 58.3289 8.916541)
(481.992 58.32802 8.955981)
(18.00769 74.99503 8.936551)
(34.01611 74.99588 8.900296)
(49.99962 74.99694 8.899119)
(66.00116 74.998 8.96723)
(82.04487 74.99887 9.029338)
(98.09989 74.99961 9.072819)
(114.1363 75.00004 9.051474)
(126.7266 70.83306 7.786703)
(366.2205 70.83321 8.025829)
(385.8633 75.0001 9.051351)
(401.8995 74.99969 9.072544)
(417.9546 74.99899 9.028988)
(433.9984 74.99818 8.966871)
(450 74.99721 8.898774)
(465.9836 74.99618 8.89999)
(481.9922 74.99531 8.936283)
(18.0075 91.66316 8.926556)
(34.01558 91.66387 8.892576)
(49.99885 91.66476 8.894722)
(66.00109 91.66556 8.965646)
(82.045 91.66608 9.028842)
(98.10019 91.66647 9.07274)
(114.1362 91.66667 9.051561)
(126.7265 87.49973 7.786693)
(366.2205 87.49988 8.02581)
(385.8636 91.66671 9.051512)
(401.8996 91.66651 9.07262)
(417.9547 91.66614 9.028677)
(433.9987 91.66565 8.965466)
(450.0009 91.66491 8.894532)
(465.9843 91.66405 8.892394)
(481.9924 91.66335 8.92639)
(18.0074 108.3311 8.921578)
(34.0153 108.3316 8.888804)
(49.99851 108.3322 8.892614)
(66.00109 108.3327 8.964888)
(82.04508 108.333 9.028583)
(98.10035 108.3332 9.072666)
(114.1362 108.3334 9.051581)
(126.7265 104.1664 7.786687)
(366.2205 104.1665 8.025806)
(385.8637 108.3334 9.05156)
(401.8995 108.3333 9.072612)
(417.9548 108.333 9.028506)
(433.9988 108.3328 8.964799)
(450.0014 108.3323 8.892516)
(465.9846 108.3317 8.888701)
(481.9926 108.3312 8.92148)
(18.00736 124.9986 8.919041)
(34.01516 124.9989 8.886901)
(49.99835 124.9993 8.891561)
(66.00108 124.9997 8.964509)
(82.04513 124.9998 9.028444)
(98.10043 124.9999 9.072615)
(114.1362 125 9.051582)
(126.7265 120.8331 7.786685)
(366.2205 120.8332 8.025805)
(385.8638 125 9.051573)
(401.8995 125 9.07259)
(417.9548 124.9998 9.028408)
(433.9988 124.9997 8.964465)
(450.0016 124.9994 8.891513)
(465.9848 124.999 8.886847)
(481.9926 124.9987 8.918983)
(18.00732 141.6658 8.917737)
(34.01509 141.666 8.88593)
(49.99826 141.6663 8.891028)
(66.00109 141.6665 8.964316)
(82.04516 141.6666 9.028373)
(98.10048 141.6666 9.072586)
(114.1362 141.6667 9.051579)
(126.7265 137.4997 7.786683)
(366.2205 137.4999 8.025804)
(385.8638 141.6666 9.051576)
(401.8995 141.6666 9.072574)
(417.9548 141.6666 9.028356)
(433.9988 141.6665 8.964298)
(450.0017 141.6663 8.891009)
(465.9849 141.6661 8.885905)
(481.9927 141.6658 8.91771)
(18.00731 158.3328 8.917073)
(34.01504 158.333 8.885437)
(49.99822 158.3331 8.89076)
(66.00108 158.3332 8.964219)
(82.04517 158.3333 9.028333)
(98.1005 158.3333 9.072569)
(114.1362 158.3334 9.051578)
(126.7265 154.1664 7.786682)
(366.2205 154.1665 8.025803)
(385.8638 158.3333 9.051575)
(401.8995 158.3333 9.072562)
(417.9548 158.3333 9.028328)
(433.9989 158.3332 8.964214)
(450.0018 158.3331 8.890753)
(465.9849 158.333 8.885432)
(481.9927 158.3328 8.917065)
(18.0073 174.9997 8.916738)
(34.01502 174.9998 8.885192)
(49.99819 174.9999 8.890629)
(66.00108 174.9999 8.964173)
(82.04518 175 9.028317)
(98.1005 175 9.072563)
(114.1362 175 9.051578)
(126.7265 170.8331 7.786682)
(366.2205 170.8332 8.025803)
(385.8638 175 9.051575)
(401.8995 175 9.072559)
(417.9548 175 9.028316)
(433.9989 174.9999 8.964174)
(450.0018 174.9999 8.890626)
(465.985 174.9998 8.885197)
(481.9927 174.9997 8.91674)
(18.00729 191.6665 8.916575)
(34.015 191.6665 8.885073)
(49.99817 191.6666 8.890565)
(66.00108 191.6666 8.964149)
(82.04519 191.6666 9.028305)
(98.10051 191.6666 9.072554)
(114.1362 191.6666 9.051575)
(126.7265 187.4997 7.786682)
(366.2205 187.4999 8.025803)
(385.8638 191.6666 9.051575)
(401.8995 191.6666 9.072554)
(417.9548 191.6666 9.028308)
(433.9989 191.6666 8.964154)
(450.0018 191.6666 8.890568)
(465.985 191.6665 8.885081)
(481.9927 191.6665 8.916583)
(18.00729 208.3332 8.916496)