/*--------------------------------*- C++ -*----------------------------------*\
  =========                 |
  \\      /  F ield         | OpenFOAM: The Open Source CFD Toolbox
   \\    /   O peration     | Website:  https://openfoam.org
    \\  /    A nd           | Version:  7
     \\/     M anipulation  |
\*---------------------------------------------------------------------------*/
FoamFile
{
    version     2.0;
    format      ascii;
    class       volVectorField;
    location    "0";
    object      U;
}
// * * * * * * * * * * * * * * * * * * * * * * * * * * * * * * * * * * * * * //

dimensions      [0 1 -1 0 0 0 0];

internalField   nonuniform List<vector> 
25860
(
(1.9999999815548264 0 0.0002716260191201798)
(1.999999703605001 0 0.0010888433807922382)
(1.9999961561729473 0 0.0039211342027226)
(1.999959824324566 0 0.012676793271628857)
(1.9996595569084976 0 0.036900629595043276)
(1.997660589281463 0 0.09670661834454869)
(1.9888628420339598 0 0.2107714296971956)
(1.9945863459910336 0 -0.14705546023911145)
(1.9991006795050577 0 -0.05997060281851912)
(1.9998799560266314 0 -0.021912587316864202)
(1.9999872300937243 0 -0.007146989718255157)
(1.9999989030658782 0 -0.0020946921692089502)
(1.9999999240787072 0 -0.000551076369708568)
(1.9999999815380871 0 0.0002717492432719938)
(1.9999997033248087 0 0.0010893579195928372)
(1.9999961494713068 0 0.003924550922833894)
(1.9999597678792869 0 0.01268569525996979)
(1.9996613480245489 0 0.036803440282721984)
(1.997670846700255 0 0.09649449851616186)
(1.9889255448591678 0 0.21017891665593433)
(1.994612861876187 0 -0.14669536883653675)
(1.9990983212048232 0 -0.060049164490916886)
(1.9998800362397355 0 -0.02190526534315807)
(1.999987205246741 0 -0.007153939427381174)
(1.9999989020596296 0 -0.002095652708912223)
(1.9999999239965185 0 -0.0005513745731305583)
(1.9999999815399203 0 0.00027173575077394274)
(1.999999703711072 0 0.001088648531271438)
(1.9999961482550503 0 0.003925170692215385)
(1.9999597702500052 0 0.012685321499519482)
(1.9996611223500536 0 0.036815699935268766)
(1.9976715955274096 0 0.09647899472410465)
(1.9889265643621186 0 0.2101692688636925)
(1.9946156037240297 0 -0.14665808324338844)
(1.9990999106433218 0 -0.05999622709690038)
(1.9998800767164904 0 -0.021901569634270344)
(1.9999871969842853 0 -0.007156248943509839)
(1.9999989040677122 0 -0.0020937354059682787)
(1.9999999240541164 0 -0.0005511656092861507)
(1.9999999815442941 0 0.0002717035574937831)
(1.9999997040494124 0 0.0010880267749566954)
(1.9999961503172698 0 0.0039241197867073314)
(1.999959774772531 0 0.012684608460936579)
(1.9996609517355342 0 0.03682496577238578)
(1.997671556775519 0 0.09647979710838063)
(1.9889268194745617 0 0.21016685460558196)
(1.9946162590635557 0 -0.1466491700600688)
(1.9991008580764391 0 -0.05996464990346362)
(1.9998801073950048 0 -0.02189876813303235)
(1.9999871960775173 0 -0.007156502357323)
(1.9999989055651877 0 -0.002092304483567307)
(1.9999999241221464 0 -0.0005509186951951338)
(1.9999999815457516 0 0.0002716928286678844)
(1.9999997041947524 0 0.001087759579806782)
(1.9999961511403148 0 0.003923700285060942)
(1.9999597768514878 0 0.012684280671252175)
(1.9996609646174195 0 0.03682426625652363)
(1.9976715479900247 0 0.09647997901709061)
(1.9889268214759233 0 0.2101668356655759)
(1.994616318281628 0 -0.146648364616326)
(1.9991009068591792 0 -0.059963023562923684)
(1.9998801146037755 0 -0.021898109790334762)
(1.9999871959569213 0 -0.0071565360595117885)
(1.9999989061139596 0 -0.0020917798557824135)
(1.9999999241567121 0 -0.00055079319724756)
(1.9999999815454996 0 0.0002716946831822218)
(1.9999997042417608 0 0.0010876731446446072)
(1.9999961513576774 0 0.003923589489041135)
(1.9999597776122644 0 0.01268416071729142)
(1.9996609675589752 0 0.036824106521447963)
(1.9976715380426189 0 0.09648018498343526)
(1.9889268208088027 0 0.21016684197891125)
(1.9946163180649357 0 -0.14664836756363575)
(1.9991009181609742 0 -0.05996264677238457)
(1.9998801148252319 0 -0.02189808956547486)
(1.9999871955526076 0 -0.007156649049353688)
(1.9999989062955492 0 -0.0020916062266403157)
(1.9999999241667397 0 -0.0005507567843844983)
(1.9999999815452396 0 0.00027169659803528236)
(1.9999997042559554 0 0.001087647043430599)
(1.9999961513861553 0 0.003923574972835161)
(1.999959777898948 0 0.012684115514712668)
(1.9996609685269433 0 0.03682405395779777)
(1.9976715381364711 0 0.09648018304017224)
(1.988926820697616 0 0.2101668430311338)
(1.9946163180649357 0 -0.14664836756363575)
(1.999100918306111 0 -0.05996264193365026)
(1.9998801165054365 0 -0.021897936117402497)
(1.9999871951658617 0 -0.007156757128059887)
(1.9999989063534054 0 -0.002091550903576816)
(1.999999924170588 0 -0.0005507428101230097)
(1.9999999815450136 0 0.00027169826227436104)
(1.9999997042601738 0 0.0010876392864135125)
(1.9999961513687143 0 0.0039235838631162066)
(1.9999597780406648 0 0.01268409316958507)
(1.9996609690057945 0 0.036824027954685416)
(1.9976715381833974 0 0.09648018206854073)
(1.988926820697616 0 0.2101668430311338)
(1.9946163181191088 0 -0.14664836682680832)
(1.9991009183605375 0 -0.05996264011912488)
(1.9998801165429503 0 -0.021897932691356103)
(1.9999871951610788 0 -0.007156758464627468)
(1.9999989063826527 0 -0.002091522936464049)
(1.9999999241725317 0 -0.0005507357508306534)
(1.9999999815448843 0 0.0002716992134556622)
(1.9999997042610622 0 0.0010876376528365754)
(1.9999961513571773 0 0.003923589743901533)
(1.9999597780548772 0 0.012684090928644925)
(1.9996609690263227 0 0.0368240268399359)
(1.9976715407934336 0 0.09648012802639032)
(1.988926820697616 0 0.2101668430311338)
(1.9946163181191088 0 -0.14664836682680832)
(1.9991009183968218 0 -0.059962638909441306)
(1.9998801165611022 0 -0.021897931033591722)
(1.9999871949707393 0 -0.007156811655649066)
(1.9999989063798163 0 -0.002091525648720637)
(1.999999924172192 0 -0.0005507369848542865)
(1.9999999815448029 0 0.00027169981222166685)
(1.9999997042605249 0 0.0010876386407664776)
(1.9999961513425324 0 0.003923597209018146)
(1.9999597781188323 0 0.012684080844551911)
(1.9996609690365867 0 0.036824026282561144)
(1.9976715408168968 0 0.09648012754057483)
(1.988926820697616 0 0.2101668430311338)
(1.9946163181191088 0 -0.14664836682680832)
(1.9991009184058928 0 -0.05996263860702042)
(1.9998801165707834 0 -0.02189793014945072)
(1.9999871949695758 0 -0.0071568119807624815)
(1.9999989063959571 0 -0.0020915102141656023)
(1.999999924172022 0 -0.0005507376018661031)
(1.999999981544779 0 0.00027169998774442117)
(1.99999970426075 0 0.0010876382268826194)
(1.9999961513411728 0 0.003923597901997771)
(1.9999597781216747 0 0.012684080396364195)
(1.9996609690434295 0 0.03682402591097798)
(1.9976715408168968 0 0.09648012754057483)
(1.988926820697616 0 0.2101668430311338)
(1.9946163181191088 0 -0.14664836682680832)
(1.9991009184149637 0 -0.05996263830459952)
(1.9998801165744138 0 -0.021897929817897843)
(1.9999871949688002 0 -0.007156812197504759)
(1.9999989063952397 0 -0.0020915109001394005)
(1.9999999241719408 0 -0.0005507378964753487)
(1.999999981544767 0 0.0002717000755057984)
(1.9999997042606246 0 0.001087638457399404)
(1.9999961513405125 0 0.003923598238587874)
(1.999959778123299 0 0.01268408014025693)
(1.999660969046851 0 0.036824025725186386)
(1.9976715408168968 0 0.09648012754057483)
(1.988926820697616 0 0.2101668430311338)
(1.9946163181191088 0 -0.14664836682680832)
(1.9991009184149637 0 -0.05996263830459952)
(1.9998801165768338 0 -0.021897929596862594)
(1.999987194968671 0 -0.007156812233628474)
(1.9999989063949195 0 -0.0020915112061892487)
(1.999999924171898 0 -0.0005507380521179693)
(1.9999999815447613 0 0.00027170011801521543)
(1.999999704260553 0 0.0010876385891232811)
(1.9999961513402018 0 0.003923598396983216)
(1.9999597781249234 0 0.012684079884149662)
(1.999660969046851 0 0.036824025725186386)
(1.9976715408168968 0 0.09648012754057483)
(1.988926820697616 0 0.2101668430311338)
(1.9946163181191088 0 -0.14664836682680832)
(1.9991009184149637 0 -0.05996263830459952)
(1.999880116578044 0 -0.021897929486344968)
(1.999987194968671 0 -0.007156812233628474)
(1.999998906394754 0 -0.0020915113644908944)
(1.9999999241718789 0 -0.0005507381216012819)
(1.9999999815447587 0 0.0002717001385842882)
(1.999999704260523 0 0.0010876386440082297)
(1.9999961513400464 0 0.0039235984761808885)
(1.9999597781245173 0 0.01268407994817648)
(1.999660969046851 0 0.036824025725186386)
(1.9976715408168968 0 0.09648012754057483)
(1.988926820697616 0 0.2101668430311338)
(1.9946163181191088 0 -0.14664836682680832)
(1.9991009184149637 0 -0.05996263830459952)
(1.999880116578044 0 -0.021897929486344968)
(1.9999871949684125 0 -0.007156812305875899)
(1.999998906394688 0 -0.0020915114278115526)
(1.9999999241718698 0 -0.000550738154953272)
(1.999999981544757 0 0.0002717001495544603)
(1.9999997042605082 0 0.0010876386714507042)
(1.999996151334025 0 0.003923601545464039)
(1.999959778180757 0 0.012684071080600115)
(1.999660969046851 0 0.036824025725186386)
(1.9976715408168968 0 0.09648012754057483)
(1.988926820697616 0 0.2101668430311338)
(1.9946163181191088 0 -0.14664836682680832)
(1.9991009184149637 0 -0.05996263830459952)
(1.9998801165768338 0 -0.021897929596862594)
(1.9999871949684125 0 -0.007156812305875899)
(1.9999989063946548 0 -0.002091511459471882)
(1.9999999241718651 0 -0.000550738171629267)
(1.999999981544756 0 0.00027170015778208947)
(1.9999997042604962 0 0.0010876386934046839)
(1.9999961513339473 0 0.003923601585062905)
(1.9999597781253293 0 0.012684079820122846)
(1.999660969046851 0 0.036824025725186386)
(1.9976715408168968 0 0.09648012754057483)
(1.988926820697616 0 0.2101668430311338)
(1.9946163181191088 0 -0.14664836682680832)
(1.9991009184149637 0 -0.05996263830459952)
(1.9998801165792541 0 -0.02189792937582734)
(1.9999871949684125 0 -0.007156812305875899)
(1.9999989063946657 0 -0.0020915114489184388)
(1.9999999241718667 0 -0.000550738166070602)
(1.9999999815447553 0 0.00027170016326717554)
(1.9999997042604902 0 0.0010876387043816736)
(1.9999961513339861 0 0.003923601565263472)
(1.9999597781249234 0 0.012684079884149662)
(1.9996609690502722 0 0.0368240255393948)
(1.9976715408168968 0 0.09648012754057483)
(1.988926820697616 0 0.2101668430311338)
(1.9946163181191088 0 -0.14664836682680832)
(1.9991009184149637 0 -0.05996263830459952)
(1.999880116578044 0 -0.021897929486344968)
(1.9999871949684125 0 -0.007156812305875899)
(1.999998906394688 0 -0.0020915114278115526)
(1.9999999241718673 0 -0.0005507381632912696)
(1.999999981544721 0 0.00027170041647360933)
(1.9999997042599846 0 0.001087639634184879)
(1.999996151327965 0 0.003923604634548877)
(1.9999597781253293 0 0.012684079820122846)
(1.9996609690502722 0 0.0368240255393948)
(1.9976715408168968 0 0.09648012754057483)
(1.988926820697616 0 0.2101668430311338)
(1.9946163181191088 0 -0.14664836682680832)
(1.9991009184149637 0 -0.05996263830459952)
(1.9998801165768338 0 -0.021897929596862594)
(1.9999871949685417 0 -0.007156812269752186)
(1.9999989063946988 0 -0.00209151141725811)
(1.9999999241718713 0 -0.0005507381493946071)
(1.9999999815447198 0 0.00027170042470124584)
(1.9999997042599698 0 0.0010876396616273762)
(1.9999961513278872 0 0.003923604674147773)
(1.9999597781253293 0 0.012684079820122846)
(1.9996609690502722 0 0.0368240255393948)
(1.9976715408168968 0 0.09648012754057483)
(1.988926820697616 0 0.2101668430311338)
(1.9946163181191088 0 -0.14664836682680832)
(1.9991009184149637 0 -0.05996263830459952)
(1.9998801165768338 0 -0.021897929596862594)
(1.9999871949685417 0 -0.007156812269752186)
(1.999998906394776 0 -0.002091511343384008)
(1.999999924171881 0 -0.0005507381132632844)
(1.999999981544719 0 0.00027170043018633696)
(1.999999704259461 0 0.0010876405969198586)
(1.9999961513277706 0 0.003923604733546117)
(1.9999597781253293 0 0.012684079820122846)
(1.9996609690502722 0 0.0368240255393948)
(1.9976715408168968 0 0.09648012754057483)
(1.988926820697616 0 0.2101668430311338)
(1.9946163181191088 0 -0.14664836682680832)
(1.9991009184149637 0 -0.05996263830459952)
(1.9998801165756237 0 -0.021897929707380217)
(1.999987194968671 0 -0.007156812233628474)
(1.9999989063949417 0 -0.0020915111850823625)
(1.9999999241719042 0 -0.0005507380298833092)
(1.9999999815447187 0 0.0002717004329288824)
(1.9999997042589615 0 0.0010876415157475697)
(1.9999961513099396 0 0.003923613822618999)
(1.9999597781241112 0 0.012684080012203296)
(1.9996609690502722 0 0.0368240255393948)
(1.9976715408168968 0 0.09648012754057483)
(1.988926820697616 0 0.2101668430311338)
(1.9946163181191088 0 -0.14664836682680832)
(1.9991009184058928 0 -0.05996263860702042)
(1.9998801165719935 0 -0.021897930038933092)
(1.9999871949689294 0 -0.007156812161381047)
(1.9999989063953612 0 -0.0020915107840515264)
(1.9999999241719517 0 -0.0005507378575646938)
(1.999999981544721 0 0.00027170041647360933)
(1.9999997042574953 0 0.0010876442118613477)
(1.9999961513040736 0 0.003923616812715281)
(1.999959778123705 0 0.012684080076230113)
(1.9996609690502722 0 0.0368240255393948)
(1.9976715408168968 0 0.09648012754057483)
(1.988926820697616 0 0.2101668430311338)
(1.9946163181191088 0 -0.14664836682680832)
(1.9991009183968218 0 -0.059962638909441306)
(1.999880116567153 0 -0.021897930481003598)
(1.9999871949694465 0 -0.007156812016886197)
(1.9999989063786574 0 -0.0020915267568410332)
(1.9999999241720503 0 -0.0005507374990308002)
(1.9999999815446619 0 0.0002717008502095638)
(1.9999997042546225 0 0.0010876494943367144)
(1.9999961512925746 0 0.003923622674116958)
(1.9999597780642169 0 0.012684089456027113)
(1.999660969046851 0 0.036824025725186386)
(1.9976715408168968 0 0.09648012754057483)
(1.988926820697616 0 0.2101668430311338)
(1.9946163181191088 0 -0.14664836682680832)
(1.9991009183696085 0 -0.05996263981670399)
(1.9998801165550517 0 -0.02189793158617985)
(1.9999871949709978 0 -0.00715681158340164)
(1.999998906380335 0 -0.002091525152704841)
(1.9999999241722508 0 -0.0005507367708456835)
(1.9999999815446143 0 0.0002717012002982139)
(1.9999997042489217 0 0.0010876599770303316)
(1.9999961512463065 0 0.0039236462584021185)
(1.9999597780002618 0 0.012684099540126472)
(1.9996609690365867 0 0.036824026282561144)
(1.9976715407934336 0 0.09648012802639032)
(1.988926820697616 0 0.2101668430311338)
(1.9946163180649357 0 -0.14664836756363575)
(1.9991009183333244 0 -0.05996264102638758)
(1.999880116529639 0 -0.021897933907049985)
(1.9999871951613373 0 -0.007156758392380572)
(1.9999989063662797 0 -0.0020915385927274504)
(1.9999999241713382 0 -0.0005507400850918439)
(1.9999999815443583 0 0.00027170308424125426)
(1.9999997042356434 0 0.0010876843931055937)
(1.9999961511544677 0 0.0039236930709674175)
(1.999959777871539 0 0.012684119836401237)
(1.999660968578264 0 0.03682405117092223)
(1.9976715407465075 0 0.0964801289980213)
(1.9889268208088027 0 0.21016684197891125)
(1.9946163180107626 0 -0.14664836830046316)
(1.9991009182244717 0 -0.05996264465543831)
(1.9998801164751834 0 -0.021897938880343137)
(1.9999871953551642 0 -0.007156704226398431)
(1.9999989063210561 0 -0.0020915818366498556)
(1.9999999241695336 0 -0.0005507466385814135)
(1.9999999815438507 0 0.0002717068206224722)
(1.9999997042038204 0 0.0010877429065978372)
(1.9999961509192283 0 0.003923812976067654)
(1.9999597775509488 0 0.012684170385136839)
(1.999660967610296 0 0.036824103734568917)
(1.9976715431922996 0 0.09648007835660245)
(1.9889268210311761 0 0.21016683987446613)
(1.9946163181191088 0 -0.14664836682680832)
(1.9991009072401682 0 -0.05996301086117054)
(1.9998801147465726 0 -0.02189809674916827)
(1.9999871955588122 0 -0.007156647315453601)
(1.9999989062150896 0 -0.002091683160872262)
(1.9999999241620738 0 -0.0005507737275002646)
(1.9999999815426068 0 0.00027171597692139573)
(1.9999997041273188 0 0.001087883558923799)
(1.9999961502839154 0 0.003924136786335517)
(1.9999597763804395 0 0.012684354942317271)
(1.9996609621546997 0 0.03682439998887431)
(1.997671557022338 0 0.09647979199784681)
(1.9889268213647364 0 0.21016683671779846)
(1.9946163179024163 0 -0.14664836977411805)
(1.9991008948315474 0 -0.05996342454952302)
(1.9998801127517025 0 -0.021898278933231798)
(1.9999871958026563 0 -0.007156579170782921)
(1.999998905856742 0 -0.002092025773084768)
(1.99999992413844 0 -0.0005508595410002563)
(1.9999999815398184 0 0.00027173650092410126)
(1.9999997039572268 0 0.0010881962164273435)
(1.9999961486868518 0 0.003924950669756576)
(1.99995977295339 0 0.012684895278426648)
(1.9996609506939973 0 0.03682502232965176)
(1.9976715746684264 0 0.0964794266243856)
(1.9889268096901258 0 0.2101669472011663)
(1.9946160799971624 0 -0.1466516055716873)
(1.999100703611764 0 -0.059969799223857784)
(1.9998800964582248 0 -0.0218997668992399)
(1.999987195909493 0 -0.0071565493139757455)
(1.9999989048605917 0 -0.0020929778866246745)
(1.9999999240804145 0 -0.0005510701739855998)
(1.9999999815354406 0 0.00027176872085878215)
(1.999999703650084 0 0.0010887605686175593)
(1.9999961451896455 0 0.003926732300270644)
(1.999959764201364 0 0.012686275088628327)
(1.9996612599864292 0 0.03680822339487105)
(1.997671403350997 0 0.09648297380190078)
(1.9889261775692075 0 0.2101729292271982)
(1.994614704767971 0 -0.14667030893599536)
(1.9990990567462057 0 -0.060024672564130584)
(1.9998800515454338 0 -0.021903867937713126)
(1.9999871991254912 0 -0.007155650506602008)
(1.9999989029574259 0 -0.002094795716236517)
(1.9999999239680597 0 -0.0005514777921590597)
(1.9999999815318314 0 0.00027179527891066054)
(1.9999997033127919 0 0.0010893799817639678)
(1.9999961420735264 0 0.003928319107607085)
(1.9999597722386369 0 0.012685007969252616)
(1.9996612634730697 0 0.03680803397747412)
(1.99766879743629 0 0.09653691392129499)
(1.988916670292379 0 0.21026287982683953)
(1.9946063603739836 0 -0.1467837428179648)
(1.9990978235318326 0 -0.06006573024853709)
(1.999879975085455 0 -0.021910847820201057)
(1.9999872158439642 0 -0.007150976206673205)
(1.9999989017914368 0 -0.0020959086446930035)
(1.999999923904666 0 -0.0005517076495186327)
(1.99999996372153 0 0.00038093815633563047)
(1.999999447040126 0 0.0014872253325292492)
(1.9999931981322332 0 0.005216073696014238)
(1.9999322040801495 0 0.01646751599711907)
(1.9994650102927554 0 0.04625659536749352)
(1.9966000647678224 0 0.11656835492159745)
(1.988115988281771 0 0.2177035074094978)
(1.9555286085997408 0 0.41941371096801555)
(1.9736086895187492 0 -0.32383443401850437)
(1.9965965610847365 0 -0.11662835103268983)
(1.9994646610345126 0 -0.04627168976967868)
(1.9999321850374854 0 -0.01646982851122042)
(1.9999931972434961 0 -0.005216414452279207)
(1.9999994470075373 0 -0.001487269156929929)
(1.9999999637207202 0 -0.0003809424075813968)
(1.9999999636893213 0 0.00038110722063327396)
(1.999999446414621 0 0.001488066265210326)
(1.9999932070943722 0 0.0052126362205607655)
(1.9999321763042872 0 0.01647088894983074)
(1.9994654104009584 0 0.04623929724949267)
(1.996599778026203 0 0.11657326617074965)
(1.9881007494777394 0 0.21784262651292782)
(1.9557959783366423 0 0.4181651481439076)
(1.9739394265149388 0 -0.3218122751696627)
(1.9965980032097599 0 -0.1166036602289991)
(1.999465256898925 0 -0.0462459344603967)
(1.9999321633244385 0 -0.016472464916696117)
(1.9999932063107526 0 -0.005212936872380038)
(1.9999994463715471 0 -0.0014881241563284991)
(1.999999963688639 0 -0.0003811108009956968)
(1.999999963661434 0 0.0003812535410412281)
(1.9999994459488 0 0.0014886922090876012)
(1.9999932228341424 0 0.005206593656169406)
(1.9999321195236828 0 0.016477781935378022)
(1.9994655052826238 0 0.046235194223687034)
(1.9965996752279676 0 0.11657502682639447)
(1.9880993879403697 0 0.217855051975223)
(1.9557978386769668 0 0.4181564470703588)
(1.9739633858951702 0 -0.3216652781157392)
(1.9965989988999742 0 -0.11658660982986441)
(1.9994654323877956 0 -0.04623834649169122)
(1.9999321117065223 0 -0.016478730688081013)
(1.9999932221533658 0 -0.005206855154252404)
(1.999999445909823 0 -0.0014887445721799878)
(1.9999999636602428 0 -0.00038125979021775717)
(1.9999999636550734 0 0.00038128690693447104)
(1.9999994460210626 0 0.0014885951236762135)
(1.999993228259381 0 0.005204509258279305)
(1.9999320924041666 0 0.016481073141404158)
(1.9994655233174272 0 0.04623441429245853)
(1.996599586315216 0 0.11657654963974612)
(1.9880994312913505 0 0.21785465636292572)
(1.9557994227426723 0 0.4181490380228439)
(1.9739696855292368 0 -0.3216266167648531)
(1.9965993636382173 0 -0.11658036335277921)
(1.9994654889572214 0 -0.04623590021897663)
(1.99993208785928 0 -0.01648162464143728)
(1.9999932278558172 0 -0.005204664337777793)
(1.9999994459889858 0 -0.001488638219775971)
(1.9999999636546133 0 -0.0003812893196184734)
(1.9999999636532724 0 0.00038129635349699344)
(1.9999994460961776 0 0.0014884941998689098)
(1.9999932295963336 0 0.0052039954676184694)
(1.9999320797076177 0 0.01648261376005236)
(1.9994655275541897 0 0.04623423106796366)
(1.996599599374477 0 0.11657632597435152)
(1.988099456328329 0 0.21785442788018589)
(1.9557997750544727 0 0.4181473901591087)
(1.973970870342948 0 -0.3216193449366882)
(1.9965995297216743 0 -0.11657751890990319)
(1.9994655124571883 0 -0.04623488395479888)
(1.9999320774874005 0 -0.016482883149805984)
(1.9999932293425393 0 -0.0052040930045982575)
(1.999999446080851 0 -0.0014885147931993211)
(1.9999999636527073 0 -0.00038129931751481726)
(1.9999999636519792 0 0.0003813031370291534)
(1.999999446123248 0 0.0014884578264845823)
(1.9999932299136098 0 0.005203873531007714)
(1.9999320736394752 0 0.016483350026883344)
(1.9994655304616336 0 0.04623410533122426)
(1.9965996170331084 0 0.1165760235350532)
(1.9880994581426017 0 0.21785441132346525)
(1.955799768921564 0 0.4181474188445465)
(1.9739711033778575 0 -0.32161791465837813)
(1.99659957131992 0 -0.11657680646299859)
(1.9994655203342833 0 -0.04623454330210305)
(1.9999320728544967 0 -0.016483445268405384)
(1.9999932297863365 0 -0.0052039224454213115)
(1.9999994461109702 0 -0.001488474323805965)
(1.9999999636516246 0 -0.0003813049966735835)
(1.99999996365117 0 0.00038130738017086717)
(1.9999994461302621 0 0.0014884484017624459)
(1.9999932299799474 0 0.005203848035520344)
(1.9999320707591692 0 0.016483699491953847)
(1.999465532157981 0 0.04623403196998781)
(1.9965996251989588 0 0.11657588367830274)
(1.98809957480936 0 0.2178533466413633)
(1.9557997680454342 0 0.4181474229424662)
(1.9739711033778575 0 -0.32161791465837813)
(1.996599609810017 0 -0.11657614724499929)
(1.9994655274414521 0 -0.046234235943459545)
(1.9999320700898457 0 -0.016483780699345044)
(1.9999932299162073 0 -0.005203872532704893)
(1.9999994461227304 0 -0.001488458522095814)
(1.9999999636508285 0 -0.000381309171208522)
(1.9999999636506376 0 0.0003813101736118175)
(1.9999994461315986 0 0.0014884466060598191)
(1.9999932299940513 0 0.005203842615008684)
(1.9999320691824831 0 0.016483890786815177)
(1.9994655336618716 0 0.046233966931761204)
(1.9965996292120423 0 0.11657581494604896)
(1.98809957480936 0 0.2178533466413633)
(1.9557997680454342 0 0.4181474229424662)
(1.973971103639333 0 -0.32161791305353915)
(1.9965996474616934 0 -0.11657550238296789)
(1.9994655342571046 0 -0.046233941189898965)
(1.999932069174096 0 -0.016483891804387092)
(1.9999932299824301 0 -0.005203847081401721)
(1.9999994461242034 0 -0.0014884565427297025)
(1.9999999636507557 0 -0.0003813095536601012)
(1.9999999636503991 0 0.00038131142416011795)
(1.999999446130438 0 0.0014884481655578498)
(1.9999932299959193 0 0.005203841897106467)
(1.9999320683488628 0 0.01648399192670218)
(1.999465533744351 0 0.046233963364800866)
(1.9965996292818773 0 0.11657581374998183)
(1.9880995746884096 0 0.21785334774513943)
(1.9557997680454342 0 0.4181474229424662)
(1.973971103639333 0 -0.32161791305353915)
(1.9965996476711974 0 -0.11657549879477619)
(1.9994655343725758 0 -0.04623393619615757)
(1.999932068253442 0 -0.016484003503695093)
(1.999993229965024 0 -0.005203853771052906)
(1.9999994461294637 0 -0.0014884494745960814)
(1.9999999636503936 0 -0.00038131145357049557)
(1.9999999636502133 0 0.00038131239862396313)
(1.9999994461312078 0 0.0014884471309610338)
(1.9999932299868681 0 0.005203845375717254)
(1.9999320679783616 0 0.016484036877943937)
(1.99946553378834 0 0.04623396146242203)
(1.9965996293167947 0 0.11657581315194826)
(1.9880995745674592 0 0.21785334884891555)
(1.9557997680454342 0 0.4181474229424662)
(1.9739711033778575 0 -0.32161791465837813)
(1.996599647741032 0 -0.11657549759871229)
(1.9994655344330605 0 -0.04623393358038827)
(1.9999320673306793 0 -0.016484115458086077)
(1.9999932299563907 0 -0.005203857089119894)
(1.999999446127573 0 -0.0014884520151170354)
(1.9999999636502122 0 -0.00038131240450603866)
(1.9999999636501857 0 0.0003813125435260441)
(1.9999994461311514 0 0.001488447206962153)
(1.999993229992641 0 0.005203843157042184)
(1.999932067887134 0 0.01648404794617483)
(1.9994655338103344 0 0.04623396051123261)
(1.9965996292818773 0 0.11657581374998183)
(1.9880995745674592 0 0.21785334884891555)
(1.9557997680454342 0 0.4181474229424662)
(1.9739711033778575 0 -0.32161791465837813)
(1.9965996477759491 0 -0.11657549700068032)
(1.9994655344605536 0 -0.04623393239140222)
(1.999932067332776 0 -0.01648411520368963)
(1.999993229952283 0 -0.005203858667877574)
(1.999999446126639 0 -0.0014884532700731692)
(1.9999999636501213 0 -0.0003813128809541562)
(1.9999999636500765 0 0.00038131311623717715)
(1.9999994461306843 0 0.001488447834437654)
(1.999993229990413 0 0.005203844013314966)
(1.9999320677011836 0 0.016484070506649726)
(1.9994655338158331 0 0.04623396027343526)
(1.9965996292818773 0 0.11657581374998183)
(1.9880995745674592 0 0.21785334884891555)
(1.9557997680454342 0 0.4181474229424662)
(1.9739711033778575 0 -0.32161791465837813)
(1.9965996477759491 0 -0.11657549700068032)
(1.9994655344715508 0 -0.046233931915807804)
(1.999932067333475 0 -0.016484115118890814)
(1.9999932299502636 0 -0.005203859443877111)
(1.9999994461352422 0 -0.0014884417101303329)
(1.999999963650078 0 -0.00038131310839440975)
(1.9999999636501176 0 0.0003813129003716434)
(1.9999994461304567 0 0.0014884481405232643)
(1.9999932299894383 0 0.005203844387934308)
(1.9999320677018826 0 0.016484070421851148)
(1.9994655338213316 0 0.04623396003563791)
(1.9965996292818773 0 0.11657581374998183)
(1.9880995745674592 0 0.21785334884891555)
(1.9557997680454342 0 0.4181474229424662)
(1.9739711033778575 0 -0.32161791465837813)
(1.9965996477759491 0 -0.11657549700068032)
(1.9994655344770496 0 -0.0462339316780106)
(1.999932067333475 0 -0.016484115118890814)
(1.9999932299493586 0 -0.005203859791738974)
(1.999999446135026 0 -0.0014884420009104737)
(1.9999999636500567 0 -0.0003813132201538447)
(1.9999999636500432 0 0.00038131329073875104)
(1.9999994461303483 0 0.0014884482859139295)
(1.9999932299991796 0 0.0052038406440237245)
(1.9999320677018826 0 0.016484070421851148)
(1.9994655338213316 0 0.04623396003563791)
(1.9965996292818773 0 0.11657581374998183)
(1.9880995745674592 0 0.21785334884891555)
(1.9557997680454342 0 0.4181474229424662)
(1.9739711033778575 0 -0.32161791465837813)
(1.9965996477759491 0 -0.11657549700068032)
(1.9994655344770496 0 -0.0462339316780106)
(1.9999320673341738 0 -0.016484115034092)
(1.9999932299490104 0 -0.0052038599255319964)
(1.9999994461349346 0 -0.001488442123344217)
(1.9999999636500478 0 -0.0003813132672104489)
(1.9999999636500372 0 0.0003813133221098205)
(1.9999994461302857 0 0.0014884483700874722)
(1.9999932299886725 0 0.005203844682278078)
(1.9999320676092567 0 0.016484081659699695)
(1.9994655338213316 0 0.04623396003563791)
(1.9965996292818773 0 0.11657581374998183)
(1.9880995745674592 0 0.21785334884891555)
(1.9557997680454342 0 0.4181474229424662)
(1.9739711033778575 0 -0.32161791465837813)
(1.9965996477759491 0 -0.11657549700068032)
(1.9994655344770496 0 -0.0462339316780106)
(1.9999320673341738 0 -0.016484115034092)
(1.9999932299488712 0 -0.005203859979049207)
(1.9999994461348949 0 -0.00148844217690898)
(1.9999999636500436 0 -0.0003813132887780592)
(1.9999999636500327 0 0.0003813133456381226)
(1.9999994461302402 0 0.001488448431304594)
(1.9999932299884635 0 0.0052038447625536504)
(1.9999320676092567 0 0.016484081659699695)
(1.9994655338268303 0 0.04623395979784055)
(1.9965996292818773 0 0.11657581374998183)
(1.9880995745674592 0 0.21785334884891555)
(1.9557997680454342 0 0.4181474229424662)
(1.9739711033778575 0 -0.32161791465837813)
(1.9965996477759491 0 -0.11657549700068032)
(1.9994655344770496 0 -0.0462339316780106)
(1.9999320673341738 0 -0.016484115034092)
(1.999993229948732 0 -0.005203860032566416)
(1.9999994461348833 0 -0.001488442192213198)
(1.999999963650043 0 -0.0003813132926994429)
(1.9999999636500916 0 0.00038131303761995087)
(1.999999446130183 0 0.0014884485078259968)
(1.999993229988185 0 0.005203844869587748)
(1.9999320676092567 0 0.016484081659699695)
(1.9994655338268303 0 0.04623395979784055)
(1.9965996292818773 0 0.11657581374998183)
(1.9880995745674592 0 0.21785334884891555)
(1.9557997680454342 0 0.4181474229424662)
(1.9739711033778575 0 -0.32161791465837813)
(1.9965996477759491 0 -0.11657549700068032)
(1.9994655344715508 0 -0.046233931915807804)
(1.999932067333475 0 -0.016484115118890814)
(1.999993229948732 0 -0.005203860032566416)
(1.9999994461348949 0 -0.00148844217690898)
(1.9999999636500443 0 -0.0003813132848566755)
(1.9999999636500223 0 0.00038131340053749416)
(1.999999446129209 0 0.001488449816864461)
(1.9999932299877674 0 0.0052038450301388935)
(1.9999320676092567 0 0.016484081659699695)
(1.9994655344880468 0 0.04623393120241618)
(1.9965996293167947 0 0.11657581315194826)
(1.9880995745674592 0 0.21785334884891555)
(1.9557997680454342 0 0.4181474229424662)
(1.9739711033778575 0 -0.32161791465837813)
(1.9965996477759491 0 -0.11657549700068032)
(1.9994655344660521 0 -0.04623393215360502)
(1.999932067332077 0 -0.01648411528848845)
(1.999993229948941 0 -0.005203859952290601)
(1.999999446134946 0 -0.0014884421080399994)
(1.9999999636500503 0 -0.000381313253485606)
(1.9999999636499508 0 0.0003813137752195276)
(1.9999994461282176 0 0.0014884511488604626)
(1.9999932299771208 0 0.005203849121913486)
(1.9999320676085577 0 0.01648408174449834)
(1.9994655344935452 0 0.04623393096461896)
(1.9965996293167947 0 0.11657581315194826)