/*--------------------------------*- C++ -*----------------------------------*\
  =========                 |
  \\      /  F ield         | OpenFOAM: The Open Source CFD Toolbox
   \\    /   O peration     | Website:  https://openfoam.org
    \\  /    A nd           | Version:  7
     \\/     M anipulation  |
\*---------------------------------------------------------------------------*/
FoamFile
{
    version     2.0;
    format      ascii;
    class       scalarField;
    location    "3/lagrangian/kinematicCloud";
    object      mass;
}
// * * * * * * * * * * * * * * * * * * * * * * * * * * * * * * * * * * * * * //

250000{0.000109026}

// ************************************************************************* //
