/*--------------------------------*- C++ -*----------------------------------*\
  =========                 |
  \\      /  F ield         | OpenFOAM: The Open Source CFD Toolbox
   \\    /   O peration     | Website:  https://openfoam.org
    \\  /    A nd           | Version:  7
     \\/     M anipulation  |
\*---------------------------------------------------------------------------*/
FoamFile
{
    version     2.0;
    format      ascii;
    class       volVectorField;
    location    "0";
    object      U;
}
// * * * * * * * * * * * * * * * * * * * * * * * * * * * * * * * * * * * * * //

dimensions      [0 1 -1 0 0 0 0];

internalField   nonuniform List<vector> 
22426
(
(0.9198942377526069 -0.04613226082999613 0)
(0.9173649768071933 -0.050078184965136746 0)
(0.9141852252093895 -0.05469368575459238 0)
(0.9103417439881212 -0.06002350379201776 0)
(0.9058336740919735 -0.06607696213292112 0)
(0.9006895658684256 -0.07281029480377028 0)
(0.894981886341469 -0.08010036126272747 0)
(0.8888228926032181 -0.08774289622136736 0)
(0.8823546152347059 -0.09544922799792295 0)
(0.8757683355769503 -0.1028703027753766 0)
(0.8695014552714145 -0.10965963885281832 0)
(0.8641189493926716 -0.11551122441786124 0)
(0.8598677391395639 -0.12015550941163475 0)
(0.856391431271552 -0.12335136594603867 0)
(0.8532533777980735 -0.12498630413682937 0)
(0.8505681498943516 -0.12518468436385735 0)
(0.8486139066126089 -0.1241888339176494 0)
(0.8477082258929893 -0.122271885364162 0)
(0.8478433960989248 -0.11965670494838566 0)
(0.848870607027546 -0.11653856280946431 0)
(0.8505569078051723 -0.113084216376287 0)
(0.8527215773556089 -0.10944394140210531 0)
(0.8551859323273067 -0.10573746308840148 0)
(0.8577622949167527 -0.10205031056970676 0)
(0.8602999775700129 -0.0984432743551936 0)
(0.8626910930426902 -0.09495875598967125 0)
(0.8648643853712586 -0.09162449107492836 0)
(0.8667805155330466 -0.08845654632892264 0)
(0.8684096267747259 -0.08546186198083032 0)
(0.8697306800132056 -0.08264082642343676 0)
(0.9214067356053904 -0.04427271876830897 0)
(0.9187212606957076 -0.04843083912730169 0)
(0.9152614775668231 -0.053405222906711104 0)
(0.9109927742288171 -0.059280895196482025 0)
(0.9058955083683768 -0.06610499473150312 0)
(0.8999810342004028 -0.07385811175517747 0)
(0.8933166820674557 -0.0824116255053598 0)
(0.8860310630827577 -0.09151393778856033 0)
(0.87824316899676 -0.10077070047597106 0)
(0.8700403366476581 -0.1096726086389619 0)
(0.8622241118955367 -0.11775646951768677 0)
(0.8562278811233434 -0.12469356809444195 0)
(0.8528426991899937 -0.13020285829007755 0)
(0.8502718984069042 -0.13378148325446093 0)
(0.8466532504800597 -0.1351003889863539 0)
(0.8425990409413809 -0.13448431069022493 0)
(0.8391588778186188 -0.13246170798795062 0)
(0.8378071260797977 -0.12958817961155716 0)
(0.8383607012988299 -0.1260740650343284 0)
(0.8403074799619876 -0.12209831703854454 0)
(0.842915662865608 -0.11780426715713022 0)
(0.8460197930232286 -0.11338774009039963 0)
(0.8494191111328787 -0.10899361105551919 0)
(0.8528718514502784 -0.1047101875877752 0)
(0.856179363217497 -0.10059106731872938 0)
(0.8592165589426617 -0.09667015011462547 0)
(0.8619245046982207 -0.09296762230988523 0)
(0.8642660929189699 -0.08948975548494033 0)
(0.8662283815631513 -0.08623587529224108 0)
(0.8677956533327781 -0.08319815069981329 0)
(0.9229357457172247 -0.04199531277028015 0)
(0.9200734917646203 -0.046317012444759956 0)
(0.9162767277583386 -0.05162266183041985 0)
(0.9114852748956236 -0.05805702021312784 0)
(0.9056545951668618 -0.06573054532678371 0)
(0.8987746101887781 -0.0746753585234709 0)
(0.890906183256529 -0.0847769314412668 0)
(0.8822220455708201 -0.09573545411738864 0)
(0.8727196596017235 -0.10699405723563907 0)
(0.8616817227821998 -0.117710352375575 0)
(0.8506410523206955 -0.12726880047667044 0)
(0.844522846864855 -0.1356918407490023 0)
(0.8478838738606463 -0.1432965095180648 0)
(0.8516619031128433 -0.1483535926736231 0)
(0.8475408308531963 -0.14915502741451078 0)
(0.8379612347459829 -0.14648116287027554 0)
(0.826168895222777 -0.14158251766079938 0)
(0.8223918214878347 -0.1370700412912061 0)
(0.8238241890900749 -0.13244716616847074 0)
(0.828002858862914 -0.12756905834246762 0)
(0.8321375497553933 -0.12231960331437065 0)
(0.836631213740166 -0.117029424554696 0)
(0.841397644865042 -0.11189286889922254 0)
(0.8461884929904218 -0.10699928803870132 0)
(0.8506878642712983 -0.10237618430734247 0)
(0.8547252697400591 -0.0980379015053188 0)
(0.8582361646830616 -0.09398953689653397 0)
(0.8612047906375928 -0.09022567380241131 0)
(0.8636360764294352 -0.08673527561392073 0)
(0.8655337101921126 -0.08350180733942136 0)
(0.9245076185827656 -0.03925838156641891 0)
(0.921461686572294 -0.04366718189016843 0)
(0.9172869939169082 -0.04924456553062706 0)
(0.911907482925748 -0.05622150058187638 0)
(0.9052777104218149 -0.06481247572561508 0)
(0.8974188895167627 -0.07515380184008695 0)
(0.8884080673515647 -0.08719620107217255 0)
(0.8787862322955649 -0.10064158295638831 0)
(0.8682121222143506 -0.11470242353969523 0)
(0.8525989797477178 -0.1276938263692034 0)
(0.8342935867027916 -0.1386533076949628 0)
(0.8265562542408711 -0.14877661895574076 0)
(0.8389326804421497 -0.15943916893952276 0)
(0.42784526307164283 -0.08078412383969694 0)
(0.42663622681467783 -0.08148641190555068 0)
(0.8226733397659958 -0.15874056888645038 0)
(0.8131136965127187 -0.1522198640288426 0)
(0.8011397587574762 -0.1446053435464611 0)
(0.8052220957663933 -0.13878870265664658 0)
(0.8146644367767104 -0.13319773156228631 0)
(0.8204781947836215 -0.12677467723430827 0)
(0.8257195402510844 -0.12034628075720351 0)
(0.8312415686012602 -0.11428370816834496 0)
(0.8375863199630962 -0.1087555162983458 0)
(0.8437197338518696 -0.10366135137434458 0)
(0.8491587642130685 -0.09895112425851793 0)
(0.8537821629729907 -0.09460240329630876 0)
(0.8575997693174097 -0.09059437593612842 0)
(0.8606517251317521 -0.08690493530704108 0)
(0.8629674546184365 -0.08350787414441027 0)
(0.9261379456972292 -0.0360348549553523 0)
(0.9229120099259887 -0.04041974116514155 0)
(0.9183414958573379 -0.04616456281445758 0)
(0.9123714536130443 -0.05361968401236419 0)
(0.9050889660646988 -0.0631671227670608 0)
(0.8969189515274709 -0.0751550597089703 0)
(0.8877843802179014 -0.08969388210360833 0)
(0.8799537760215872 -0.10663896230013589 0)
(0.8718840790678988 -0.1250920939945466 0)
(0.8538027484510448 -0.14203351819108867 0)
(0.8278141465188777 -0.15541643654061688 0)
(0.8152348232140096 -0.1675010824768102 0)
(0.823108813592679 -0.17911247078898732 0)
(0.4168526012401401 -0.08968889122697062 0)
(0.48974509550491774 -0.10560511991800557 0)
(0.39905356568717154 -0.08376848347053402 0)
(0.7818815415663812 -0.16110066647981378 0)
(0.7939794903428732 -0.15598901995732045 0)
(0.8016540778317398 -0.14826620130234572 0)
(0.8172768765186746 -0.14141820522273263 0)
(0.8235087769347649 -0.13313849018927965 0)
(0.8215507624812565 -0.12420338981609329 0)
(0.8206377377709844 -0.11616442558221322 0)
(0.8272082066941475 -0.10981358801409355 0)
(0.8351768222317573 -0.10428740297666747 0)
(0.8424424743048332 -0.09928331573280656 0)
(0.8485344614387812 -0.09470922032061983 0)
(0.8534517763369934 -0.09052147237327586 0)
(0.8572928081138533 -0.08668786228332062 0)
(0.8601271984875521 -0.08317314794421186 0)
(0.9278314691698567 -0.03232445909689924 0)
(0.9244391610695957 -0.03653667421215377 0)
(0.9194774420721572 -0.04228790079560508 0)
(0.9130201047505859 -0.050084701096293455 0)
(0.9057411522553689 -0.06057190870277422 0)
(0.9000580650067717 -0.07452070015514911 0)
(0.8932371548364811 -0.09225934820096195 0)
(0.8842611080417836 -0.11356234227492945 0)
(0.4239836372313475 -0.06269250795925166 0)
(0.41756590279194894 -0.0733355973649132 0)
(0.3940007563115028 -0.08000851387668068 0)
(0.37644241646204085 -0.08528721476286329 0)
(0.3806729191067557 -0.09243778600466171 0)
(0.0 0.0 0)
(0.0 0.0 0)
(0.0 0.0 0)
(0.0 0.0 0)
(0.3677467656188125 -0.07860669992334748 0)
(0.3706530891155915 -0.07375563392895665 0)
(0.3927133447039902 -0.07214118222323355 0)
(0.39544342454409986 -0.06736168675173138 0)
(0.8188476859585294 -0.12760739784383487 0)
(0.815329585839955 -0.1180203109587133 0)
(0.8166011503284412 -0.11014518371651365 0)
(0.825333182863778 -0.10411686088812967 0)
(0.8346000990103026 -0.098907346152487 0)
(0.8424940594130405 -0.09421069071150474 0)
(0.8487826711375039 -0.0899329838729989 0)
(0.8535955138641873 -0.08602913744157062 0)
(0.857056692357691 -0.08245708266455752 0)
(0.9295730445920684 -0.02817513942257651 0)
(0.9260374056374766 -0.032033798260992535 0)
(0.9207116760909992 -0.037570051329417604 0)
(0.9139416686257418 -0.04547371042870536 0)
(0.907285394547033 -0.05674028541879605 0)
(0.9044081596243614 -0.0727180224540642 0)
(0.4514832070763631 -0.04421947556887531 0)
(0.44607639000973365 -0.05627254206881778 0)
(0.42031311684620004 -0.06811324230543209 0)
(0.474498311083517 -0.09420727909151759 0)
(0.0 0.0 0)
(0.44537626335775976 -0.08570203499145607 0)
(0.0 0.0 0)
(0.38254706092322593 -0.06218498292516721 0)
(0.8114055812980573 -0.11905413369874568 0)
(0.8124260489316829 -0.11037068895779074 0)
(0.8161460003577463 -0.10321199896511554 0)
(0.8261118391776764 -0.09775158641939012 0)
(0.8357799334761344 -0.09302644370967993 0)
(0.8436553914183724 -0.08876614537934205 0)
(0.8496229520298961 -0.0848836781036878 0)
(0.8538191967263448 -0.08132786909952557 0)
(0.9313248313225667 -0.023691574283835094 0)
(0.9276669279469952 -0.02699997690870454 0)
(0.922044917923309 -0.03205248131820195 0)
(0.9155471435887184 -0.039739623707757285 0)
(0.9119540977121782 -0.05152945451022081 0)
(0.9089780848808175 -0.06919189088507859 0)
(0.45277989392938467 -0.04393993000712051 0)
(0.520953007544615 -0.06951448819001252 0)
(0.49106967315385674 -0.08731220309338919 0)
(0.0 0.0 0)
(0.0 0.0 0)
(0.3794496022877473 -0.057241393411492966 0)
(0.811144124245073 -0.10979509182346808 0)
(0.8144920764582472 -0.10222337109849795 0)
(0.8190430857394642 -0.09593440932959431 0)
(0.828849067792713 -0.09112635745108104 0)
(0.838217289932735 -0.08698037176822933 0)
(0.8454803099710847 -0.08322261874088041 0)
(0.8505103841050372 -0.07976729472432495 0)
(0.9329989746082739 -0.019046628041576454 0)
(0.929171753129905 -0.02162269463009635 0)
(0.9231349098965498 -0.025908397402524576 0)
(0.9170738546476878 -0.03296883469389045 0)
(0.9178103093967798 -0.04481207328505534 0)
(0.44257944587594134 -0.029088539372228012 0)
(0.4348423143856732 -0.04056515149456459 0)
(0.5004790784758331 -0.06854256642927772 0)
(0.0 0.0 0)
(0.3802852665810382 -0.05209844378502605 0)
(0.8174166076196828 -0.10062223343431075 0)
(0.8194246253216034 -0.0940180856960328 0)
(0.8226754089962222 -0.0885545195016397 0)
(0.8327523637353723 -0.08456695967664891 0)
(0.8413426688602876 -0.08103862925565361 0)
(0.8472683145787079 -0.07777326405406454 0)
(0.9344976685719825 -0.014478173768209162 0)
(0.9302539869954976 -0.016193705010689854 0)
(0.9227045712015893 -0.019458897201207283 0)
(0.9135070059249831 -0.025372951943139377 0)
(0.913790244208369 -0.03621790318851527 0)
(0.4436782843575921 -0.025410677247375855 0)
(0.5007285504393457 -0.043350589286282305 0)
(0.0 0.0 0)
(0.0 0.0 0)
(0.3870314982624174 -0.0475070186127281 0)
(0.8201151016187951 -0.09113836348647655 0)
(0.8165800478110748 -0.08521233406208026 0)
(0.8274489264815403 -0.08153327817689848 0)
(0.8374178560650954 -0.07834787200545305 0)
(0.8442521380837018 -0.07536152116289793 0)
(0.9359389329194581 -0.010269014092025141 0)
(0.9313157346794694 -0.011097846627890932 0)
(0.9217941675519362 -0.013224450130565498 0)
(0.9064781133458353 -0.01766268733788038 0)
(0.9006855596710296 -0.02665223785406503 0)
(0.42654907894222727 -0.019778193065740853 0)
(0.0 0.0 0)
(0.4578138395405085 -0.05379261608390064 0)
(0.8143574863625197 -0.08657639030822835 0)
(0.8098382722372389 -0.08104958138432848 0)
(0.8223153521984925 -0.07790463691753043 0)
(0.8338450393626567 -0.07518498268535805 0)
(0.8416002224308272 -0.0725641971117644 0)
(0.9375663911427358 -0.00670044223251514 0)
(0.9334328355752566 -0.006745371613590718 0)
(0.9251418861286825 -0.00782233954174208 0)
(0.9096320527179098 -0.010846912445617005 0)
(0.9005250115989752 -0.01780670877820388 0)
(0.4148395102187096 -0.014274231485164471 0)
(0.0 0.0 0)
(0.7971253082903998 -0.08000602886815802 0)
(0.7986110366669941 -0.07579894335069298 0)
(0.8166895929576008 -0.07369151350766288 0)
(0.8306769242536672 -0.07160529851026025 0)
(0.839438857731248 -0.06942940811359076 0)
(0.9393200028337394 -0.003988218403338937 0)
(0.9370463126625488 -0.0034654668861965735 0)
(0.9372820621034965 -0.0037601368333358334 0)
(0.9330526708787635 -0.005684664049957275 0)
(0.9205759790950372 -0.010684091588346344 0)
(0.42579045464190124 -0.009854589053079534 0)
(0.0 0.0 0)
(0.7865505584662359 -0.07348054816429847 0)
(0.7914914556756307 -0.07046200008990523 0)
(0.8131916970639858 -0.06924132532443769 0)
(0.8285432642693642 -0.06773420258506131 0)
(0.8379377901862746 -0.0660192645898255 0)
(0.9405423714006826 -0.002228028308625898 0)
(0.9398482274903242 -0.001409245195083623 0)
(0.9478852974066342 -0.001208839062875252 0)
(0.47792121434717705 -0.0012464840664699966 0)
(0.4688906641073058 -0.0026518741039096403 0)
(0.0 0.0 0)
(0.0 0.0 0)
(0.7733686759344425 -0.06647319748831908 0)
(0.8078731120099746 -0.06680337510011033 0)
(0.8145527890218458 -0.06486318902711255 0)
(0.8279007001135683 -0.06367836247694225 0)
(0.8372367234941178 -0.06239542692907868 0)
(0.9406068989130836 -0.0013607061546792457 0)
(0.9395961275690985 -0.0005031192399451545 0)
(0.9473468546791308 -0.00011903754620228064 0)
(0.4790806552721916 -0.0003113765262188709 0)
(0.5537912519098567 -0.0014840341135673033 0)
(0.0 0.0 0)
(0.0 0.0 0)
(0.8137378273389242 -0.06158659642186892 0)
(0.8265780821597393 -0.060874151739280874 0)
(0.8292964650835682 -0.05951496757038003 0)
(0.8374472945278095 -0.05861472028304743 0)
(0.9396321825976606 -0.0011814418186267069 0)
(0.936980734935705 -0.00045436146482265625 0)
(0.9383088837553735 -0.00013668518228839976 0)
(0.9274059614834842 -0.000512123633130237 0)
(0.4518825145256654 -0.0007166279185778888 0)
(0.0 0.0 0)
(0.0 0.0 0)
(0.41057183715673246 -0.02896773775799595 0)
(0.8364532394450955 -0.056380487796831524 0)
(0.8321152066964577 -0.055242934044090974 0)
(0.8385428141082383 -0.05473019327811876 0)
(0.938036398084853 -0.0014125669700686702 0)
(0.9333726639284953 -0.0008552156919000989 0)
(0.9247270022283679 -0.0006550020307280763 0)
(0.9155120212097261 -0.0009259783238822277 0)
(0.8846146191592179 -0.001649264981154057 0)
(0.0 0.0 0)
(0.0 0.0 0)
(0.0 0.0 0)
(0.41696644760181373 -0.026318022437141885 0)
(0.8393108417404558 -0.0513027687995401 0)
(0.8347065287862557 -0.05084841577795978 0)
(0.8401513807533333 -0.05079584171252098 0)
(0.9363571078400538 -0.001783592432164421 0)
(0.9306761092779248 -0.0013299299802986978 0)
(0.9186302838742473 -0.0011254255154951858 0)
(0.8993580531520787 -0.00112231000033071 0)
(0.8945407426036293 -0.0010425426730330594 0)
(0.4153465307850707 -0.0004387488521058528 0)
(0.0 0.0 0)
(0.0 0.0 0)
(0.8262255010027725 -0.04473471702478507 0)
(0.8328314134563299 -0.04583958691426223 0)
(0.8357702473286286 -0.04639572366658466 0)
(0.8418670284282054 -0.04688219000986356 0)
(0.9347958853574438 -0.0020881029701679413 0)
(0.9289399565931924 -0.0016177180065516763 0)
(0.917093594114105 -0.0012349471242138936 0)
(0.8998468534619399 -0.0007358452615640487 0)
(0.8977975188409212 0.00047976664345847505 0)
(0.41574553514686524 0.0009438453547087766 0)
(0.0 0.0 0)
(0.8048583098098241 -0.03636026310317656 0)
(0.8116226214769969 -0.038585658650824264 0)
(0.8269025581737675 -0.04066471364204817 0)
(0.8370398217314665 -0.04210000547691027 0)
(0.843977710390089 -0.04309564486876573 0)
(0.933414057016318 -0.0022088021321918392 0)
(0.9278696858634428 -0.0015936901834129416 0)
(0.9176797770566123 -0.0008716283939073104 0)
(0.905359548986108 0.0002987593345006766 0)
(0.9090184672658317 0.0027513631782332144 0)
(0.437038110375863 0.002749694688508011 0)
(0.49326104559159456 0.007840276181039097 0)
(0.0 0.0 0)
(0.8131514516664734 -0.03110353180032214 0)
(0.8161022185901682 -0.03374731179475218 0)
(0.8301047969797071 -0.03624315584710844 0)
(0.8403189636527096 -0.03813491354961858 0)
(0.8468305222695843 -0.03952492103565841 0)
(0.9321835702774837 -0.002117112656287605 0)
(0.9269449700088233 -0.001262705302356463 0)
(0.9176506548957432 -0.0001103600040293132 0)
(0.9063465824943934 0.0017651727512042158 0)
(0.9095242824348346 0.005279101997284952 0)
(0.436788721522187 0.0044257449199272625 0)
(0.0 0.0 0)
(0.0 0.0 0)
(0.8331984925959881 -0.026802096410794687 0)
(0.829793550223278 -0.02972888300285292 0)
(0.8373735723378383 -0.03236853006549255 0)
(0.8448911731906608 -0.03452367622869228 0)
(0.8502514752895436 -0.03621521363945408 0)
(0.9311157652337134 -0.0018528378554995436 0)
(0.9262429930750291 -0.0007211176200651882 0)
(0.9177713159876109 0.0008582106350018505 0)
(0.9066006443151908 0.0033260879143554812 0)
(0.9012658330960444 0.007508223653894851 0)
(0.8953687365461847 0.014779595820979156 0)
(0.41702583099077745 0.011067838054217944 0)
(0.0 0.0 0)
(0.0 0.0 0)
(0.0 0.0 0)
(0.48740242035793063 -0.01060732761765922 0)
(0.8445121111206415 -0.022745122843837534 0)
(0.8401340915822353 -0.02604014728451004 0)
(0.844167692018006 -0.028876502320560177 0)
(0.8495548596180733 -0.03125237692880897 0)
(0.8538225838190459 -0.03318595724660078 0)
(0.9301941922766146 -0.0014928359689970975 0)
(0.9257594574346643 -0.00010059585174309658 0)
(0.9181992006911439 0.0018284178826178394 0)
(0.907344197415253 0.004696070317133421 0)
(0.8946590148192728 0.00915280193147132 0)
(0.8859406040755035 0.016250441093800083 0)
(0.8764925867060374 0.027339345947061427 0)
(0.40755308392573225 0.019203183019478005 0)
(0.0 0.0 0)
(0.0 0.0 0)
(0.0 0.0 0)
(0.4093408467230445 -0.003923043773787847 0)
(0.8491132753413344 -0.014648660514812985 0)
(0.8459900974626204 -0.019092515234808007 0)
(0.8454627434547703 -0.022701404419482957 0)
(0.8493772312411476 -0.025760409371940626 0)
(0.853770367014034 -0.028326353473213984 0)
(0.8572701654765891 -0.03045091524992298 0)
(0.9293576262072772 -0.001121057675602711 0)
(0.9253855066148894 0.0004768947284537023 0)
(0.9188250598375272 0.0026406169839853734 0)
(0.9093056484123796 0.005704944608820225 0)
(0.8967189269477815 0.010151282614373645 0)
(0.88245984857661 0.016648047949416305 0)
(0.873491981640494 0.026057798973333393 0)
(0.8658822539642796 0.03903747249218403 0)
(0.4032188376580351 0.02562228437777187 0)
(0.0 0.0 0)
(0.0 0.0 0)
(0.4102577054056832 0.0007823578454321609 0)
(0.4122716109248344 -0.0025168665487148778 0)
(0.8510700006941128 -0.011675097975294502 0)
(0.8479681635083848 -0.016128811116348347 0)
(0.8501782723499212 -0.01989084621371276 0)
(0.8539957374454229 -0.023076582842283658 0)
(0.8576600806338892 -0.025765222099341505 0)
(0.8605490498457307 -0.028022211882211462 0)
(0.9285390233646572 -0.0008082536925656557 0)
(0.9250063880323491 0.0009230188564470797 0)
(0.9193941669290173 0.003201322854963228 0)
(0.9114130631576725 0.006286429763397862 0)
(0.900775961429446 0.010515032076596894 0)
(0.8876145166112054 0.016291404625258254 0)
(0.8739390614451847 0.024013761681477487 0)
(0.8671275538696076 0.034052958778710236 0)
(0.8641962210620389 0.04618458342466086 0)
(0.40666875456481627 0.028449931851136066 0)
(0.477328386127839 0.04109646024715292 0)
(0.0 0.0 0)
(0.0 0.0 0)
(0.0 0.0 0)
(0.0 0.0 0)
(0.0 0.0 0)
(0.0 0.0 0)
(0.0 0.0 0)
(0.0 0.0 0)
(0.49075303093741574 0.006424527085144456 0)
(0.8526399231355453 0.0018072920249313082 0)
(0.8527416743649712 -0.004295836758418832 0)
(0.8520720065187041 -0.009478916234981483 0)
(0.852033817163768 -0.0138614352690331 0)
(0.8548975180419045 -0.01761865637452373 0)
(0.8582601275973817 -0.020830396497112456 0)
(0.861273718983819 -0.02357069089598414 0)
(0.8636451916385757 -0.025902106535486427 0)
(0.9276922708691203 -0.0006031543104108979 0)
(0.9245462036214716 0.001188105690186853 0)
(0.9197638807969023 0.0034764331792264385 0)
(0.913154346888038 0.006451655924143592 0)
(0.9045167298842675 0.010336210173067996 0)
(0.893781564297014 0.0153606216135258 0)
(0.8814367139220172 0.021690407402323468 0)
(0.8697562648487458 0.029359059025239016 0)
(0.8653303628791976 0.03822554280512469 0)
(0.8608750727812076 0.04745924491019867 0)
(0.8497337692758058 0.055640182128232414 0)
(0.8272191649438567 0.061022079845631856 0)
(0.8125794191780364 0.06350487108124446 0)
(0.796299371619827 0.06176569920421866 0)
(0.0 0.0 0)
(0.0 0.0 0)
(0.0 0.0 0)
(0.0 0.0 0)
(0.8177425275177663 0.030893796377242995 0)
(0.8239537092051606 0.02283516960556969 0)
(0.842074181067344 0.015594069600584005 0)
(0.8514041166321251 0.008711278035905717 0)
(0.8509336040770819 0.0024205678602234933 0)
(0.8511090391538714 -0.003121465375825744 0)
(0.8535311119996509 -0.007972721479625345 0)
(0.8562453895291858 -0.01218459782972341 0)
(0.8592823809502735 -0.015837134661359286 0)
(0.8621449280333002 -0.018997610200825982 0)
(0.8645980373583282 -0.021728203772559126 0)
(0.8665301556532368 -0.02408209970954265 0)
(0.926780551921277 -0.0005313264164722997 0)
(0.9239702655967822 0.0012562957712779438 0)
(0.9198750370001825 0.003475076661856162 0)
(0.91438453202803 0.006256467597759104 0)
(0.9073895320160225 0.009738838885352003 0)
(0.8988389695050235 0.014042612281038168 0)
(0.8888621060680366 0.01921577654982274 0)
(0.8780230861463237 0.02517679520458003 0)
(0.8675136506520569 0.031660802985949345 0)
(0.8568593547240402 0.03811115175152078 0)
(0.8456127433663523 0.04369297814373404 0)
(0.8300586445290661 0.04740862721303597 0)
(0.8193425097299329 0.0490947746411618 0)
(0.8334495061591575 0.04985516152962073 0)
(0.8367352417289426 0.04848896976526358 0)
(0.42106767256816524 0.024720277517936255 0)
(0.42647488078353507 0.022400812004876956 0)
(0.8425002217114649 0.03372909559515525 0)
(0.8254760878530595 0.026408928171164137 0)
(0.827892455824008 0.01984074364885509 0)
(0.8396979743095082 0.013721731852599735 0)
(0.8481626278914556 0.00785791760002969 0)
(0.8516501906441051 0.0023698498668946154 0)
(0.8546315956241655 -0.002612695453677416 0)
(0.8577413336118438 -0.007067287437841975 0)
(0.8606434421479837 -0.011013929046459262 0)
(0.8633036177434216 -0.01449068147629126 0)
(0.8656448568253753 -0.017542140156223636 0)
(0.867618479545032 -0.020213758944767603 0)
(0.8691836532703452 -0.022546727814901694 0)
(0.9257818255369576 -0.0005986747430868565 0)
(0.9232461403698248 0.0011361920587013182 0)
(0.9197014937078044 0.003231894261075711 0)
(0.915086140484599 0.005774758364794052 0)
(0.9093497419237401 0.008844830368513421 0)
(0.902488554306246 0.012495812012112363 0)
(0.8945844223855607 0.01671844291097437 0)
(0.8858607213965781 0.021405056150850567 0)
(0.8767386447431946 0.026321424978036995 0)
(0.867591076190912 0.031085974581188815 0)
(0.8586239728101401 0.03519157957561197 0)
(0.8493327680040608 0.03811048074042056 0)
(0.8425680842690582 0.039590054819767725 0)
(0.8411325776586922 0.039739639319944904 0)
(0.8507905320025673 0.0391604887673625 0)
(0.8583748646779317 0.0369151976774549 0)
(0.8589054009575716 0.03300710865996087 0)
(0.8500355433039513 0.02786339092685631 0)
(0.8418196456246798 0.022358486162253964 0)
(0.8429696494973645 0.016973880650152432 0)
(0.8483194308923535 0.011724716438121908 0)
(0.8532663118146218 0.0066570182340480845 0)
(0.8566972034342111 0.0018654584817957478 0)
(0.8596325172881805 -0.0025685033588907693 0)
(0.8623230665151596 -0.006609426467888057 0)
(0.864743637834702 -0.010253724267509258 0)
(0.8668911020163382 -0.013515107194795959 0)
(0.8687577787211014 -0.016418939675669236 0)
(0.8703302364878427 -0.018994954336709863 0)
(0.8715898043237355 -0.02127269544143656 0)
(0.9246713234671106 -0.0007982151984386387 0)
(0.922355844302171 0.0008495043955602064 0)
(0.9192312100876662 0.00279060828328775 0)
(0.915271920377884 0.005078410521318646 0)
(0.9104640527334509 0.0077544357241520374 0)
(0.904833379816057 0.010833766777875134 0)
(0.8984654344466232 0.014281757746658925 0)
(0.8915263019009004 0.017994661440085262 0)
(0.884289607486239 0.021788021886112917 0)
(0.8770952421772751 0.025396061044078933 0)
(0.8702210267043204 0.028495152253307506 0)
(0.863842932957582 0.03076593623071481 0)
(0.858703990624494 0.03199453844993075 0)
(0.8552942172169832 0.032116693317896655 0)
(0.8541369759785664 0.03120712615302466 0)
(0.8545591748797636 0.02928141223771986 0)
(0.8548601891088801 0.026374233386684515 0)
(0.8536997326757727 0.022658732082487736 0)
(0.8528414128110658 0.018457210636452337 0)
(0.8541137770833892 0.014051005020837264 0)
(0.8567827698381395 0.009609807228609612 0)
(0.8596289022661521 0.0052545362872455075 0)
(0.862111179089104 0.0010794341732051163 0)
(0.8643613009406018 -0.0028470668232488724 0)
(0.8664362186531966 -0.0064853929457780865 0)
(0.8683201159759256 -0.009819248978475798 0)
(0.8700020378810595 -0.012847302748474657 0)
(0.871474193939844 -0.015580595846652483 0)
(0.872722632774895 -0.018036201443051816 0)
(0.8737352956103236 -0.020233558554073917 0)
(0.9234252170723205 -0.0011150224160420136 0)
(0.921271618095406 0.00042410355257046015 0)
(0.918447080858135 0.0021959934494537032 0)
(0.9149436536789188 0.0042307650483307336 0)
(0.9107732463705123 0.006545487138454897 0)
(0.9059777456994138 0.009134079272187708 0)
(0.9006427491372105 0.01195294443935637 0)
(0.8949131361391548 0.014911322035828812 0)
(0.8890015571670279 0.017867941508510215 0)
(0.8831575552254032 0.020635516625707166 0)
(0.8776212353056252 0.022999982050326363 0)
(0.8726056523983048 0.02475482789380683 0)
(0.8683527224386071 0.025742104557903083 0)
(0.8650319659751197 0.02587467947524596 0)
(0.862763303778585 0.025137805452428587 0)
(0.8615059697435603 0.023563774686675337 0)
(0.8608701827383387 0.021227793080394224 0)
(0.8604354984619276 0.018267404806168036 0)
(0.8604953524921168 0.014870298893219521 0)
(0.8613949327800218 0.011224162519460974 0)
(0.8629577877893639 0.007477801321919836 0)
(0.8647582766041433 0.00374629427324593 0)
(0.8665191196282694 0.0001164386599009556 0)
(0.8682021448621291 -0.003349033075180666 0)
(0.8697939824997523 -0.006608813446217849 0)
(0.8712661311079988 -0.009639489953510648 0)
(0.8726013888565191 -0.012430316104767105 0)
(0.8737794848380446 -0.014982125054079998 0)
(0.874787403177227 -0.017302340939291855 0)
(0.8756094873757007 -0.019402067734012585 0)
(1.4596733006585954 -0.04657283458934714 0)
(1.4573350787803716 -0.050683314486572116 0)
(1.4545369539697885 -0.055538779391432966 0)
(1.4512476600091249 -0.06120408430353119 0)
(1.4474530325542359 -0.06771251525051879 0)
(1.4431643364026663 -0.07504622218067572 0)
(1.4384332752432136 -0.08310389369397296 0)
(1.4333511444961566 -0.09169510443196767 0)
(1.428051431817472 -0.1005311283796695 0)
(1.4227039669049029 -0.10923593921246097 0)
(1.417514566672206 -0.11735797825745353 0)
(1.4127014915358544 -0.12442482806678964 0)
(1.408441713970737 -0.13005163716153278 0)
(1.4048236050377632 -0.13403621389271667 0)
(1.4018698307439799 -0.1363405072753867 0)
(1.3995780866350551 -0.13704202519432548 0)
(1.3979316542939724 -0.13628545235969647 0)
(1.3968857681791245 -0.13427527796730898 0)
(1.3963673403815684 -0.13126185367748175 0)
(1.396293015789525 -0.12750734154861754 0)
(1.3965761262002494 -0.12326530342048968 0)
(1.3971369681519024 -0.11875783520263962 0)
(1.3979063251259156 -0.11416405333687779 0)
(1.3988234320848398 -0.10962125860805577 0)
(1.3998383727294301 -0.10522601277714358 0)
(1.4009123724226806 -0.10104060229740415 0)
(1.4020155720470735 -0.09710071565036021 0)
(1.4031250389037528 -0.09342215751474817 0)
(1.4042233478114443 -0.09000854059135535 0)
(1.4052970134755876 -0.0868552176382273 0)
(1.4615703556962656 -0.04467216626656702 0)
(1.4591357380580883 -0.049000430386256254 0)
(1.4561547737465623 -0.05423218998464427 0)
(1.4525742946626516 -0.06048016615930673 0)
(1.4483590602638439 -0.06782636410270348 0)
(1.4435047662946976 -0.07629239852174544 0)
(1.4380607014529667 -0.08578907663149324 0)
(1.432134098443154 -0.09609658363805776 0)
(1.4258952369914204 -0.10684443293952071 0)
(1.4195671396651002 -0.1175271053749318 0)
(1.413446991468282 -0.127486408787425 0)
(1.4078846896966533 -0.13597374449207136 0)
(1.403167603015374 -0.14237809074752025 0)
(1.3992999682849863 -0.14659866311435985 0)
(1.3961877425562796 -0.1487750956288136 0)
(1.393797881992379 -0.149078236331238 0)
(1.3921647339271412 -0.14764161008571666 0)
(1.391280728526796 -0.14467692352809658 0)
(1.3910501283255088 -0.140503918618731 0)
(1.3913470115210431 -0.13549300137207504 0)
(1.3920286738722107 -0.13001896670692378 0)
(1.3929911092428178 -0.12436755448791294 0)
(1.3941513725922199 -0.11875079049442258 0)
(1.3954369558947917 -0.11332143428200145 0)
(1.396790725144521 -0.10817617304670321 0)
(1.398171524132704 -0.10336697974068652 0)
(1.3995498214852402 -0.09891452359815733 0)
(1.4009044772380603 -0.09481811171281555 0)
(1.4022200677341872 -0.09106631136053331 0)
(1.4034850777197934 -0.08764124479451496 0)
(1.4637185408913136 -0.04236667166865544 0)
(1.4612119440933224 -0.04686660834490257 0)
(1.4580583190401257 -0.05245304179625427 0)
(1.4541726267714687 -0.059308356067334284 0)
(1.4494858848200258 -0.06759275782413428 0)
(1.443964587123976 -0.07740122668876408 0)
(1.4376449990096478 -0.08868602330592369 0)
(1.4306501226652455 -0.10120596435122946 0)
(1.4231922276214277 -0.11449630596751352 0)
(1.415539363480228 -0.12791605529294267 0)
(1.4081289434706 -0.14049043100437492 0)
(1.401665630009457 -0.15079559326855485 0)
(1.3969145826466114 -0.15740864403942112 0)
(1.3931925922264636 -0.1612932823719837 0)
(1.389981611195875 -0.16315318076546687 0)
(1.3871529222546324 -0.1633280873745731 0)
(1.385208019685163 -0.1613264387921953 0)
(1.3844267981251583 -0.15722058066623396 0)
(1.3846250676162277 -0.1514354171493031 0)
(1.3855061582139439 -0.1446493928292979 0)
(1.3867532763091392 -0.13754071958452638 0)
(1.3882479451517455 -0.13044521203814574 0)
(1.3899127688255637 -0.12357864172225111 0)
(1.3916702781546708 -0.11709205106552777 0)